 1166

    1
0.0000000000e+00 0.0000000000e+00 0.0000000000e+00
0.0000000000e+00 0.0000000000e+00 0.0000000000e+00
     1      1      1
 1  1  1     0.0000000000e+00
 1  1  2     0.0000000000e+00
 1  1  3     0.0000000000e+00
 1  2  1     0.0000000000e+00
 1  2  2     0.0000000000e+00
 1  2  3    -3.1100867292e+01
 1  3  1     0.0000000000e+00
 1  3  2    -3.1100867292e+01
 1  3  3     0.0000000000e+00
 2  1  1     0.0000000000e+00
 2  1  2     0.0000000000e+00
 2  1  3    -3.1100867292e+01
 2  2  1     0.0000000000e+00
 2  2  2     0.0000000000e+00
 2  2  3     0.0000000000e+00
 2  3  1    -3.1100867292e+01
 2  3  2     0.0000000000e+00
 2  3  3     0.0000000000e+00
 3  1  1     0.0000000000e+00
 3  1  2    -3.1100867292e+01
 3  1  3     0.0000000000e+00
 3  2  1    -3.1100867292e+01
 3  2  2     0.0000000000e+00
 3  2  3     0.0000000000e+00
 3  3  1     0.0000000000e+00
 3  3  2     0.0000000000e+00
 3  3  3     0.0000000000e+00

    2
0.0000000000e+00 0.0000000000e+00 0.0000000000e+00
0.0000000000e+00 0.0000000000e+00 0.0000000000e+00
     1      1      2
 1  1  1     4.3586628044e+00
 1  1  2     5.4337772002e+00
 1  1  3     5.4337772002e+00
 1  2  1     6.1763193253e+00
 1  2  2     6.1763193253e+00
 1  2  3     8.2298781716e+00
 1  3  1     6.1763193253e+00
 1  3  2     8.2298781716e+00
 1  3  3     6.1763193253e+00
 2  1  1     6.1763193253e+00
 2  1  2     6.1763193253e+00
 2  1  3     8.2298781716e+00
 2  2  1     5.4337772002e+00
 2  2  2     4.3586628044e+00
 2  2  3     5.4337772002e+00
 2  3  1     8.2298781716e+00
 2  3  2     6.1763193253e+00
 2  3  3     6.1763193253e+00
 3  1  1     6.1763193253e+00
 3  1  2     8.2298781716e+00
 3  1  3     6.1763193253e+00
 3  2  1     8.2298781716e+00
 3  2  2     6.1763193253e+00
 3  2  3     6.1763193253e+00
 3  3  1     5.4337772002e+00
 3  3  2     5.4337772002e+00
 3  3  3     4.3586628044e+00

    3
0.0000000000e+00 0.0000000000e+00 0.0000000000e+00
0.0000000000e+00 2.7319946255e+00 2.7319946255e+00
     1      1      1
 1  1  1    -1.2598522797e-03
 1  1  2     6.1733805196e-02
 1  1  3     6.1733805196e-02
 1  2  1    -3.8577223502e-02
 1  2  2    -1.6362400864e-01
 1  2  3    -2.2789011514e-01
 1  3  1    -3.8577223502e-02
 1  3  2    -2.2789011514e-01
 1  3  3    -1.6362400864e-01
 2  1  1    -3.8577223502e-02
 2  1  2    -1.6362400864e-01
 2  1  3    -2.2789011514e-01
 2  2  1     3.7386979762e-01
 2  2  2     8.8060286712e-02
 2  2  3     2.4291115657e-02
 2  3  1     2.1154350539e-01
 2  3  2    -5.6613580760e-02
 2  3  3    -5.6613580760e-02
 3  1  1    -3.8577223502e-02
 3  1  2    -2.2789011514e-01
 3  1  3    -1.6362400864e-01
 3  2  1     2.1154350539e-01
 3  2  2    -5.6613580760e-02
 3  2  3    -5.6613580760e-02
 3  3  1     3.7386979762e-01
 3  3  2     2.4291115657e-02
 3  3  3     8.8060286712e-02

    4
0.0000000000e+00 0.0000000000e+00 0.0000000000e+00
0.0000000000e+00 2.7319946255e+00 2.7319946255e+00
     1      1      2
 1  1  1     4.3586628044e+00
 1  1  2    -5.4337772002e+00
 1  1  3    -5.4337772002e+00
 1  2  1    -6.1763193253e+00
 1  2  2     6.1763193253e+00
 1  2  3     8.2298781716e+00
 1  3  1    -6.1763193253e+00
 1  3  2     8.2298781716e+00
 1  3  3     6.1763193253e+00
 2  1  1    -6.1763193253e+00
 2  1  2     6.1763193253e+00
 2  1  3     8.2298781716e+00
 2  2  1     5.4337772002e+00
 2  2  2    -4.3586628044e+00
 2  2  3    -5.4337772002e+00
 2  3  1     8.2298781716e+00
 2  3  2    -6.1763193253e+00
 2  3  3    -6.1763193253e+00
 3  1  1    -6.1763193253e+00
 3  1  2     8.2298781716e+00
 3  1  3     6.1763193253e+00
 3  2  1     8.2298781716e+00
 3  2  2    -6.1763193253e+00
 3  2  3    -6.1763193253e+00
 3  3  1     5.4337772002e+00
 3  3  2    -5.4337772002e+00
 3  3  3    -4.3586628044e+00

    5
0.0000000000e+00 0.0000000000e+00 0.0000000000e+00
0.0000000000e+00 -2.7319946255e+00 -2.7319946255e+00
     1      1      1
 1  1  1    -1.2598522797e-03
 1  1  2    -6.1733805196e-02
 1  1  3    -6.1733805196e-02
 1  2  1     3.8577223502e-02
 1  2  2    -1.6362400864e-01
 1  2  3    -2.2789011514e-01
 1  3  1     3.8577223502e-02
 1  3  2    -2.2789011514e-01
 1  3  3    -1.6362400864e-01
 2  1  1     3.8577223502e-02
 2  1  2    -1.6362400864e-01
 2  1  3    -2.2789011514e-01
 2  2  1     3.7386979762e-01
 2  2  2    -8.8060286712e-02
 2  2  3    -2.4291115657e-02
 2  3  1     2.1154350539e-01
 2  3  2     5.6613580760e-02
 2  3  3     5.6613580760e-02
 3  1  1     3.8577223502e-02
 3  1  2    -2.2789011514e-01
 3  1  3    -1.6362400864e-01
 3  2  1     2.1154350539e-01
 3  2  2     5.6613580760e-02
 3  2  3     5.6613580760e-02
 3  3  1     3.7386979762e-01
 3  3  2    -2.4291115657e-02
 3  3  3    -8.8060286712e-02

    6
0.0000000000e+00 0.0000000000e+00 0.0000000000e+00
2.7319946255e+00 0.0000000000e+00 2.7319946255e+00
     1      1      1
 1  1  1     8.8060286712e-02
 1  1  2     3.7386979762e-01
 1  1  3     2.4291115657e-02
 1  2  1    -1.6362400864e-01
 1  2  2    -3.8577223502e-02
 1  2  3    -2.2789011514e-01
 1  3  1    -5.6613580760e-02
 1  3  2     2.1154350539e-01
 1  3  3    -5.6613580760e-02
 2  1  1    -1.6362400864e-01
 2  1  2    -3.8577223502e-02
 2  1  3    -2.2789011514e-01
 2  2  1     6.1733805196e-02
 2  2  2    -1.2598522797e-03
 2  2  3     6.1733805196e-02
 2  3  1    -2.2789011514e-01
 2  3  2    -3.8577223502e-02
 2  3  3    -1.6362400864e-01
 3  1  1    -5.6613580760e-02
 3  1  2     2.1154350539e-01
 3  1  3    -5.6613580760e-02
 3  2  1    -2.2789011514e-01
 3  2  2    -3.8577223502e-02
 3  2  3    -1.6362400864e-01
 3  3  1     2.4291115657e-02
 3  3  2     3.7386979762e-01
 3  3  3     8.8060286712e-02

    7
0.0000000000e+00 0.0000000000e+00 0.0000000000e+00
2.7319946255e+00 0.0000000000e+00 2.7319946255e+00
     1      1      2
 1  1  1    -4.3586628044e+00
 1  1  2     5.4337772002e+00
 1  1  3    -5.4337772002e+00
 1  2  1     6.1763193253e+00
 1  2  2    -6.1763193253e+00
 1  2  3     8.2298781716e+00
 1  3  1    -6.1763193253e+00
 1  3  2     8.2298781716e+00
 1  3  3    -6.1763193253e+00
 2  1  1     6.1763193253e+00
 2  1  2    -6.1763193253e+00
 2  1  3     8.2298781716e+00
 2  2  1    -5.4337772002e+00
 2  2  2     4.3586628044e+00
 2  2  3    -5.4337772002e+00
 2  3  1     8.2298781716e+00
 2  3  2    -6.1763193253e+00
 2  3  3     6.1763193253e+00
 3  1  1    -6.1763193253e+00
 3  1  2     8.2298781716e+00
 3  1  3    -6.1763193253e+00
 3  2  1     8.2298781716e+00
 3  2  2    -6.1763193253e+00
 3  2  3     6.1763193253e+00
 3  3  1    -5.4337772002e+00
 3  3  2     5.4337772002e+00
 3  3  3    -4.3586628044e+00

    8
0.0000000000e+00 0.0000000000e+00 0.0000000000e+00
2.7319946255e+00 2.7319946255e+00 5.4639892509e+00
     1      1      2
 1  1  1     6.8777012250e-02
 1  1  2    -6.2212300859e-02
 1  1  3    -2.1862792815e-02
 1  2  1    -6.4214391878e-04
 1  2  2    -6.4214391878e-04
 1  2  3    -1.8362904457e-02
 1  3  1     2.4965946055e-02
 1  3  2    -9.2811945151e-02
 1  3  3    -1.1988383525e-01
 2  1  1    -6.4214391878e-04
 2  1  2    -6.4214391878e-04
 2  1  3    -1.8362904457e-02
 2  2  1    -6.2212300859e-02
 2  2  2     6.8777012250e-02
 2  2  3    -2.1862792815e-02
 2  3  1    -9.2811945151e-02
 2  3  2     2.4965946055e-02
 2  3  3    -1.1988383525e-01
 3  1  1     2.4965946055e-02
 3  1  2    -9.2811945151e-02
 3  1  3    -1.1988383525e-01
 3  2  1    -9.2811945151e-02
 3  2  2     2.4965946055e-02
 3  2  3    -1.1988383525e-01
 3  3  1    -5.9704089695e-02
 3  3  2    -5.9704089695e-02
 3  3  3    -2.5003979220e-01

    9
0.0000000000e+00 0.0000000000e+00 0.0000000000e+00
2.7319946255e+00 -2.7319946255e+00 5.5511151231e-16
     1      1      1
 1  1  1     8.8060286712e-02
 1  1  2    -2.4291115657e-02
 1  1  3    -3.7386979762e-01
 1  2  1     5.6613580760e-02
 1  2  2    -5.6613580760e-02
 1  2  3     2.1154350539e-01
 1  3  1     1.6362400864e-01
 1  3  2    -2.2789011514e-01
 1  3  3    -3.8577223502e-02
 2  1  1     5.6613580760e-02
 2  1  2    -5.6613580760e-02
 2  1  3     2.1154350539e-01
 2  2  1     2.4291115657e-02
 2  2  2    -8.8060286712e-02
 2  2  3    -3.7386979762e-01
 2  3  1    -2.2789011514e-01
 2  3  2     1.6362400864e-01
 2  3  3     3.8577223502e-02
 3  1  1     1.6362400864e-01
 3  1  2    -2.2789011514e-01
 3  1  3    -3.8577223502e-02
 3  2  1    -2.2789011514e-01
 3  2  2     1.6362400864e-01
 3  2  3     3.8577223502e-02
 3  3  1     6.1733805196e-02
 3  3  2    -6.1733805196e-02
 3  3  3     1.2598522797e-03

   10
0.0000000000e+00 0.0000000000e+00 0.0000000000e+00
2.7319946255e+00 -2.7319946255e+00 0.0000000000e+00
     1      1      2
 1  1  1     6.8777012250e-02
 1  1  2     2.1862792815e-02
 1  1  3     6.2212300859e-02
 1  2  1    -2.4965946055e-02
 1  2  2    -1.1988383525e-01
 1  2  3    -9.2811945151e-02
 1  3  1     6.4214391878e-04
 1  3  2    -1.8362904457e-02
 1  3  3    -6.4214391878e-04
 2  1  1    -2.4965946055e-02
 2  1  2    -1.1988383525e-01
 2  1  3    -9.2811945151e-02
 2  2  1    -5.9704089695e-02
 2  2  2     2.5003979220e-01
 2  2  3     5.9704089695e-02
 2  3  1    -9.2811945151e-02
 2  3  2     1.1988383525e-01
 2  3  3    -2.4965946055e-02
 3  1  1     6.4214391878e-04
 3  1  2    -1.8362904457e-02
 3  1  3    -6.4214391878e-04
 3  2  1    -9.2811945151e-02
 3  2  2     1.1988383525e-01
 3  2  3    -2.4965946055e-02
 3  3  1    -6.2212300859e-02
 3  3  2     2.1862792815e-02
 3  3  3    -6.8777012250e-02

   11
0.0000000000e+00 0.0000000000e+00 0.0000000000e+00
-2.7319946255e+00 0.0000000000e+00 -2.7319946255e+00
     1      1      1
 1  1  1    -8.8060286712e-02
 1  1  2     3.7386979762e-01
 1  1  3    -2.4291115657e-02
 1  2  1    -1.6362400864e-01
 1  2  2     3.8577223502e-02
 1  2  3    -2.2789011514e-01
 1  3  1     5.6613580760e-02
 1  3  2     2.1154350539e-01
 1  3  3     5.6613580760e-02
 2  1  1    -1.6362400864e-01
 2  1  2     3.8577223502e-02
 2  1  3    -2.2789011514e-01
 2  2  1    -6.1733805196e-02
 2  2  2    -1.2598522797e-03
 2  2  3    -6.1733805196e-02
 2  3  1    -2.2789011514e-01
 2  3  2     3.8577223502e-02
 2  3  3    -1.6362400864e-01
 3  1  1     5.6613580760e-02
 3  1  2     2.1154350539e-01
 3  1  3     5.6613580760e-02
 3  2  1    -2.2789011514e-01
 3  2  2     3.8577223502e-02
 3  2  3    -1.6362400864e-01
 3  3  1    -2.4291115657e-02
 3  3  2     3.7386979762e-01
 3  3  3    -8.8060286712e-02

   12
0.0000000000e+00 0.0000000000e+00 0.0000000000e+00
-2.7319946255e+00 2.7319946255e+00 5.5511151231e-16
     1      1      1
 1  1  1    -8.8060286712e-02
 1  1  2     2.4291115657e-02
 1  1  3    -3.7386979762e-01
 1  2  1    -5.6613580760e-02
 1  2  2     5.6613580760e-02
 1  2  3     2.1154350539e-01
 1  3  1     1.6362400864e-01
 1  3  2    -2.2789011514e-01
 1  3  3     3.8577223502e-02
 2  1  1    -5.6613580760e-02
 2  1  2     5.6613580760e-02
 2  1  3     2.1154350539e-01
 2  2  1    -2.4291115657e-02
 2  2  2     8.8060286712e-02
 2  2  3    -3.7386979762e-01
 2  3  1    -2.2789011514e-01
 2  3  2     1.6362400864e-01
 2  3  3    -3.8577223502e-02
 3  1  1     1.6362400864e-01
 3  1  2    -2.2789011514e-01
 3  1  3     3.8577223502e-02
 3  2  1    -2.2789011514e-01
 3  2  2     1.6362400864e-01
 3  2  3    -3.8577223502e-02
 3  3  1    -6.1733805196e-02
 3  3  2     6.1733805196e-02
 3  3  3     1.2598522797e-03

   13
0.0000000000e+00 0.0000000000e+00 0.0000000000e+00
-2.7319946255e+00 2.7319946255e+00 0.0000000000e+00
     1      1      2
 1  1  1     2.5003979220e-01
 1  1  2    -5.9704089695e-02
 1  1  3     5.9704089695e-02
 1  2  1    -1.1988383525e-01
 1  2  2    -2.4965946055e-02
 1  2  3    -9.2811945151e-02
 1  3  1     1.1988383525e-01
 1  3  2    -9.2811945151e-02
 1  3  3    -2.4965946055e-02
 2  1  1    -1.1988383525e-01
 2  1  2    -2.4965946055e-02
 2  1  3    -9.2811945151e-02
 2  2  1     2.1862792815e-02
 2  2  2     6.8777012250e-02
 2  2  3     6.2212300859e-02
 2  3  1    -1.8362904457e-02
 2  3  2     6.4214391878e-04
 2  3  3    -6.4214391878e-04
 3  1  1     1.1988383525e-01
 3  1  2    -9.2811945151e-02
 3  1  3    -2.4965946055e-02
 3  2  1    -1.8362904457e-02
 3  2  2     6.4214391878e-04
 3  2  3    -6.4214391878e-04
 3  3  1     2.1862792815e-02
 3  3  2    -6.2212300859e-02
 3  3  3    -6.8777012250e-02

   14
0.0000000000e+00 0.0000000000e+00 0.0000000000e+00
2.7319946255e+00 2.7319946255e+00 0.0000000000e+00
     1      1      1
 1  1  1     8.8060286712e-02
 1  1  2     2.4291115657e-02
 1  1  3     3.7386979762e-01
 1  2  1    -5.6613580760e-02
 1  2  2    -5.6613580760e-02
 1  2  3     2.1154350539e-01
 1  3  1    -1.6362400864e-01
 1  3  2    -2.2789011514e-01
 1  3  3    -3.8577223502e-02
 2  1  1    -5.6613580760e-02
 2  1  2    -5.6613580760e-02
 2  1  3     2.1154350539e-01
 2  2  1     2.4291115657e-02
 2  2  2     8.8060286712e-02
 2  2  3     3.7386979762e-01
 2  3  1    -2.2789011514e-01
 2  3  2    -1.6362400864e-01
 2  3  3    -3.8577223502e-02
 3  1  1    -1.6362400864e-01
 3  1  2    -2.2789011514e-01
 3  1  3    -3.8577223502e-02
 3  2  1    -2.2789011514e-01
 3  2  2    -1.6362400864e-01
 3  2  3    -3.8577223502e-02
 3  3  1     6.1733805196e-02
 3  3  2     6.1733805196e-02
 3  3  3    -1.2598522797e-03

   15
0.0000000000e+00 0.0000000000e+00 0.0000000000e+00
2.7319946255e+00 2.7319946255e+00 0.0000000000e+00
     1      1      2
 1  1  1    -4.3586628044e+00
 1  1  2    -5.4337772002e+00
 1  1  3     5.4337772002e+00
 1  2  1    -6.1763193253e+00
 1  2  2    -6.1763193253e+00
 1  2  3     8.2298781716e+00
 1  3  1     6.1763193253e+00
 1  3  2     8.2298781716e+00
 1  3  3    -6.1763193253e+00
 2  1  1    -6.1763193253e+00
 2  1  2    -6.1763193253e+00
 2  1  3     8.2298781716e+00
 2  2  1    -5.4337772002e+00
 2  2  2    -4.3586628044e+00
 2  2  3     5.4337772002e+00
 2  3  1     8.2298781716e+00
 2  3  2     6.1763193253e+00
 2  3  3    -6.1763193253e+00
 3  1  1     6.1763193253e+00
 3  1  2     8.2298781716e+00
 3  1  3    -6.1763193253e+00
 3  2  1     8.2298781716e+00
 3  2  2     6.1763193253e+00
 3  2  3    -6.1763193253e+00
 3  3  1    -5.4337772002e+00
 3  3  2    -5.4337772002e+00
 3  3  3     4.3586628044e+00

   16
0.0000000000e+00 0.0000000000e+00 0.0000000000e+00
2.7319946255e+00 5.4639892509e+00 2.7319946255e+00
     1      1      2
 1  1  1     6.8777012250e-02
 1  1  2    -2.1862792815e-02
 1  1  3    -6.2212300859e-02
 1  2  1     2.4965946055e-02
 1  2  2    -1.1988383525e-01
 1  2  3    -9.2811945151e-02
 1  3  1    -6.4214391878e-04
 1  3  2    -1.8362904457e-02
 1  3  3    -6.4214391878e-04
 2  1  1     2.4965946055e-02
 2  1  2    -1.1988383525e-01
 2  1  3    -9.2811945151e-02
 2  2  1    -5.9704089695e-02
 2  2  2    -2.5003979220e-01
 2  2  3    -5.9704089695e-02
 2  3  1    -9.2811945151e-02
 2  3  2    -1.1988383525e-01
 2  3  3     2.4965946055e-02
 3  1  1    -6.4214391878e-04
 3  1  2    -1.8362904457e-02
 3  1  3    -6.4214391878e-04
 3  2  1    -9.2811945151e-02
 3  2  2    -1.1988383525e-01
 3  2  3     2.4965946055e-02
 3  3  1    -6.2212300859e-02
 3  3  2    -2.1862792815e-02
 3  3  3     6.8777012250e-02

   17
0.0000000000e+00 0.0000000000e+00 0.0000000000e+00
2.7319946255e+00 6.7338667518e-16 -2.7319946255e+00
     1      1      1
 1  1  1     8.8060286712e-02
 1  1  2    -3.7386979762e-01
 1  1  3    -2.4291115657e-02
 1  2  1     1.6362400864e-01
 1  2  2    -3.8577223502e-02
 1  2  3    -2.2789011514e-01
 1  3  1     5.6613580760e-02
 1  3  2     2.1154350539e-01
 1  3  3    -5.6613580760e-02
 2  1  1     1.6362400864e-01
 2  1  2    -3.8577223502e-02
 2  1  3    -2.2789011514e-01
 2  2  1     6.1733805196e-02
 2  2  2     1.2598522797e-03
 2  2  3    -6.1733805196e-02
 2  3  1    -2.2789011514e-01
 2  3  2     3.8577223502e-02
 2  3  3     1.6362400864e-01
 3  1  1     5.6613580760e-02
 3  1  2     2.1154350539e-01
 3  1  3    -5.6613580760e-02
 3  2  1    -2.2789011514e-01
 3  2  2     3.8577223502e-02
 3  2  3     1.6362400864e-01
 3  3  1     2.4291115657e-02
 3  3  2    -3.7386979762e-01
 3  3  3    -8.8060286712e-02

   18
0.0000000000e+00 0.0000000000e+00 0.0000000000e+00
2.7319946255e+00 1.1827516286e-16 -2.7319946255e+00
     1      1      2
 1  1  1     6.8777012250e-02
 1  1  2     6.2212300859e-02
 1  1  3     2.1862792815e-02
 1  2  1     6.4214391878e-04
 1  2  2    -6.4214391878e-04
 1  2  3    -1.8362904457e-02
 1  3  1    -2.4965946055e-02
 1  3  2    -9.2811945151e-02
 1  3  3    -1.1988383525e-01
 2  1  1     6.4214391878e-04
 2  1  2    -6.4214391878e-04
 2  1  3    -1.8362904457e-02
 2  2  1    -6.2212300859e-02
 2  2  2    -6.8777012250e-02
 2  2  3     2.1862792815e-02
 2  3  1    -9.2811945151e-02
 2  3  2    -2.4965946055e-02
 2  3  3     1.1988383525e-01
 3  1  1    -2.4965946055e-02
 3  1  2    -9.2811945151e-02
 3  1  3    -1.1988383525e-01
 3  2  1    -9.2811945151e-02
 3  2  2    -2.4965946055e-02
 3  2  3     1.1988383525e-01
 3  3  1    -5.9704089695e-02
 3  3  2     5.9704089695e-02
 3  3  3     2.5003979220e-01

   19
0.0000000000e+00 0.0000000000e+00 0.0000000000e+00
5.4639892509e+00 2.7319946255e+00 2.7319946255e+00
     1      1      2
 1  1  1    -2.5003979220e-01
 1  1  2    -5.9704089695e-02
 1  1  3    -5.9704089695e-02
 1  2  1    -1.1988383525e-01
 1  2  2     2.4965946055e-02
 1  2  3    -9.2811945151e-02
 1  3  1    -1.1988383525e-01
 1  3  2    -9.2811945151e-02
 1  3  3     2.4965946055e-02
 2  1  1    -1.1988383525e-01
 2  1  2     2.4965946055e-02
 2  1  3    -9.2811945151e-02
 2  2  1    -2.1862792815e-02
 2  2  2     6.8777012250e-02
 2  2  3    -6.2212300859e-02
 2  3  1    -1.8362904457e-02
 2  3  2    -6.4214391878e-04
 2  3  3    -6.4214391878e-04
 3  1  1    -1.1988383525e-01
 3  1  2    -9.2811945151e-02
 3  1  3     2.4965946055e-02
 3  2  1    -1.8362904457e-02
 3  2  2    -6.4214391878e-04
 3  2  3    -6.4214391878e-04
 3  3  1    -2.1862792815e-02
 3  3  2    -6.2212300859e-02
 3  3  3     6.8777012250e-02

   20
0.0000000000e+00 0.0000000000e+00 0.0000000000e+00
5.4639892509e+00 6.7338667518e-16 5.5511151231e-16
     1      1      1
 1  1  1     7.0705339696e-02
 1  1  2     0.0000000000e+00
 1  1  3     0.0000000000e+00
 1  2  1     0.0000000000e+00
 1  2  2    -2.1282934156e-02
 1  2  3    -6.7615760939e-03
 1  3  1     0.0000000000e+00
 1  3  2    -6.7615760939e-03
 1  3  3    -2.1282934156e-02
 2  1  1     0.0000000000e+00
 2  1  2    -2.1282934156e-02
 2  1  3    -6.7615760939e-03
 2  2  1     4.2893041338e-02
 2  2  2     0.0000000000e+00
 2  2  3     0.0000000000e+00
 2  3  1     6.4749413932e-04
 2  3  2     0.0000000000e+00
 2  3  3     0.0000000000e+00
 3  1  1     0.0000000000e+00
 3  1  2    -6.7615760939e-03
 3  1  3    -2.1282934156e-02
 3  2  1     6.4749413932e-04
 3  2  2     0.0000000000e+00
 3  2  3     0.0000000000e+00
 3  3  1     4.2893041338e-02
 3  3  2     0.0000000000e+00
 3  3  3     0.0000000000e+00

   21
0.0000000000e+00 0.0000000000e+00 0.0000000000e+00
5.4639892509e+00 1.1827516286e-16 0.0000000000e+00
     1      1      2
 1  1  1    -2.5003979220e-01
 1  1  2     5.9704089695e-02
 1  1  3     5.9704089695e-02
 1  2  1     1.1988383525e-01
 1  2  2     2.4965946055e-02
 1  2  3    -9.2811945151e-02
 1  3  1     1.1988383525e-01
 1  3  2    -9.2811945151e-02
 1  3  3     2.4965946055e-02
 2  1  1     1.1988383525e-01
 2  1  2     2.4965946055e-02
 2  1  3    -9.2811945151e-02
 2  2  1    -2.1862792815e-02
 2  2  2    -6.8777012250e-02
 2  2  3     6.2212300859e-02
 2  3  1    -1.8362904457e-02
 2  3  2     6.4214391878e-04
 2  3  3     6.4214391878e-04
 3  1  1     1.1988383525e-01
 3  1  2    -9.2811945151e-02
 3  1  3     2.4965946055e-02
 3  2  1    -1.8362904457e-02
 3  2  2     6.4214391878e-04
 3  2  3     6.4214391878e-04
 3  3  1    -2.1862792815e-02
 3  3  2     6.2212300859e-02
 3  3  3    -6.8777012250e-02

   22
0.0000000000e+00 0.0000000000e+00 0.0000000000e+00
5.5511151231e-16 2.7319946255e+00 -2.7319946255e+00
     1      1      1
 1  1  1     1.2598522797e-03
 1  1  2     6.1733805196e-02
 1  1  3    -6.1733805196e-02
 1  2  1    -3.8577223502e-02
 1  2  2     1.6362400864e-01
 1  2  3    -2.2789011514e-01
 1  3  1     3.8577223502e-02
 1  3  2    -2.2789011514e-01
 1  3  3     1.6362400864e-01
 2  1  1    -3.8577223502e-02
 2  1  2     1.6362400864e-01
 2  1  3    -2.2789011514e-01
 2  2  1    -3.7386979762e-01
 2  2  2     8.8060286712e-02
 2  2  3    -2.4291115657e-02
 2  3  1     2.1154350539e-01
 2  3  2     5.6613580760e-02
 2  3  3    -5.6613580760e-02
 3  1  1     3.8577223502e-02
 3  1  2    -2.2789011514e-01
 3  1  3     1.6362400864e-01
 3  2  1     2.1154350539e-01
 3  2  2     5.6613580760e-02
 3  2  3    -5.6613580760e-02
 3  3  1    -3.7386979762e-01
 3  3  2     2.4291115657e-02
 3  3  3    -8.8060286712e-02

   23
0.0000000000e+00 0.0000000000e+00 0.0000000000e+00
0.0000000000e+00 2.7319946255e+00 -2.7319946255e+00
     1      1      2
 1  1  1    -6.8777012250e-02
 1  1  2    -6.2212300859e-02
 1  1  3     2.1862792815e-02
 1  2  1    -6.4214391878e-04
 1  2  2     6.4214391878e-04
 1  2  3    -1.8362904457e-02
 1  3  1    -2.4965946055e-02
 1  3  2    -9.2811945151e-02
 1  3  3     1.1988383525e-01
 2  1  1    -6.4214391878e-04
 2  1  2     6.4214391878e-04
 2  1  3    -1.8362904457e-02
 2  2  1     6.2212300859e-02
 2  2  2     6.8777012250e-02
 2  2  3     2.1862792815e-02
 2  3  1    -9.2811945151e-02
 2  3  2    -2.4965946055e-02
 2  3  3    -1.1988383525e-01
 3  1  1    -2.4965946055e-02
 3  1  2    -9.2811945151e-02
 3  1  3     1.1988383525e-01
 3  2  1    -9.2811945151e-02
 3  2  2    -2.4965946055e-02
 3  2  3    -1.1988383525e-01
 3  3  1     5.9704089695e-02
 3  3  2    -5.9704089695e-02
 3  3  3     2.5003979220e-01

   24
0.0000000000e+00 0.0000000000e+00 0.0000000000e+00
5.5511151231e-16 5.4639892509e+00 5.5511151231e-16
     1      1      1
 1  1  1     0.0000000000e+00
 1  1  2     4.2893041338e-02
 1  1  3     0.0000000000e+00
 1  2  1    -2.1282934156e-02
 1  2  2     0.0000000000e+00
 1  2  3    -6.7615760939e-03
 1  3  1     0.0000000000e+00
 1  3  2     6.4749413932e-04
 1  3  3     0.0000000000e+00
 2  1  1    -2.1282934156e-02
 2  1  2     0.0000000000e+00
 2  1  3    -6.7615760939e-03
 2  2  1     0.0000000000e+00
 2  2  2     7.0705339696e-02
 2  2  3     0.0000000000e+00
 2  3  1    -6.7615760939e-03
 2  3  2     0.0000000000e+00
 2  3  3    -2.1282934156e-02
 3  1  1     0.0000000000e+00
 3  1  2     6.4749413932e-04
 3  1  3     0.0000000000e+00
 3  2  1    -6.7615760939e-03
 3  2  2     0.0000000000e+00
 3  2  3    -2.1282934156e-02
 3  3  1     0.0000000000e+00
 3  3  2     4.2893041338e-02
 3  3  3     0.0000000000e+00

   25
0.0000000000e+00 0.0000000000e+00 0.0000000000e+00
0.0000000000e+00 5.4639892509e+00 0.0000000000e+00
     1      1      2
 1  1  1    -6.8777012250e-02
 1  1  2    -2.1862792815e-02
 1  1  3     6.2212300859e-02
 1  2  1     2.4965946055e-02
 1  2  2     1.1988383525e-01
 1  2  3    -9.2811945151e-02
 1  3  1     6.4214391878e-04
 1  3  2    -1.8362904457e-02
 1  3  3     6.4214391878e-04
 2  1  1     2.4965946055e-02
 2  1  2     1.1988383525e-01
 2  1  3    -9.2811945151e-02
 2  2  1     5.9704089695e-02
 2  2  2    -2.5003979220e-01
 2  2  3     5.9704089695e-02
 2  3  1    -9.2811945151e-02
 2  3  2     1.1988383525e-01
 2  3  3     2.4965946055e-02
 3  1  1     6.4214391878e-04
 3  1  2    -1.8362904457e-02
 3  1  3     6.4214391878e-04
 3  2  1    -9.2811945151e-02
 3  2  2     1.1988383525e-01
 3  2  3     2.4965946055e-02
 3  3  1     6.2212300859e-02
 3  3  2    -2.1862792815e-02
 3  3  3    -6.8777012250e-02

   26
0.0000000000e+00 0.0000000000e+00 0.0000000000e+00
5.5511151231e-16 6.7338667518e-16 -5.4639892509e+00
     1      1      1
 1  1  1     0.0000000000e+00
 1  1  2     0.0000000000e+00
 1  1  3    -4.2893041338e-02
 1  2  1     0.0000000000e+00
 1  2  2     0.0000000000e+00
 1  2  3     6.4749413932e-04
 1  3  1     2.1282934156e-02
 1  3  2    -6.7615760939e-03
 1  3  3     0.0000000000e+00
 2  1  1     0.0000000000e+00
 2  1  2     0.0000000000e+00
 2  1  3     6.4749413932e-04
 2  2  1     0.0000000000e+00
 2  2  2     0.0000000000e+00
 2  2  3    -4.2893041338e-02
 2  3  1    -6.7615760939e-03
 2  3  2     2.1282934156e-02
 2  3  3     0.0000000000e+00
 3  1  1     2.1282934156e-02
 3  1  2    -6.7615760939e-03
 3  1  3     0.0000000000e+00
 3  2  1    -6.7615760939e-03
 3  2  2     2.1282934156e-02
 3  2  3     0.0000000000e+00
 3  3  1     0.0000000000e+00
 3  3  2     0.0000000000e+00
 3  3  3    -7.0705339696e-02

   27
0.0000000000e+00 0.0000000000e+00 0.0000000000e+00
-2.7319946255e+00 -2.7319946255e+00 0.0000000000e+00
     1      1      1
 1  1  1    -8.8060286712e-02
 1  1  2    -2.4291115657e-02
 1  1  3     3.7386979762e-01
 1  2  1     5.6613580760e-02
 1  2  2     5.6613580760e-02
 1  2  3     2.1154350539e-01
 1  3  1    -1.6362400864e-01
 1  3  2    -2.2789011514e-01
 1  3  3     3.8577223502e-02
 2  1  1     5.6613580760e-02
 2  1  2     5.6613580760e-02
 2  1  3     2.1154350539e-01
 2  2  1    -2.4291115657e-02
 2  2  2    -8.8060286712e-02
 2  2  3     3.7386979762e-01
 2  3  1    -2.2789011514e-01
 2  3  2    -1.6362400864e-01
 2  3  3     3.8577223502e-02
 3  1  1    -1.6362400864e-01
 3  1  2    -2.2789011514e-01
 3  1  3     3.8577223502e-02
 3  2  1    -2.2789011514e-01
 3  2  2    -1.6362400864e-01
 3  2  3     3.8577223502e-02
 3  3  1    -6.1733805196e-02
 3  3  2    -6.1733805196e-02
 3  3  3    -1.2598522797e-03

   28
0.0000000000e+00 0.0000000000e+00 0.0000000000e+00
-2.7319946255e+00 7.9166183804e-16 2.7319946255e+00
     1      1      1
 1  1  1    -8.8060286712e-02
 1  1  2    -3.7386979762e-01
 1  1  3     2.4291115657e-02
 1  2  1     1.6362400864e-01
 1  2  2     3.8577223502e-02
 1  2  3    -2.2789011514e-01
 1  3  1    -5.6613580760e-02
 1  3  2     2.1154350539e-01
 1  3  3     5.6613580760e-02
 2  1  1     1.6362400864e-01
 2  1  2     3.8577223502e-02
 2  1  3    -2.2789011514e-01
 2  2  1    -6.1733805196e-02
 2  2  2     1.2598522797e-03
 2  2  3     6.1733805196e-02
 2  3  1    -2.2789011514e-01
 2  3  2    -3.8577223502e-02
 2  3  3     1.6362400864e-01
 3  1  1    -5.6613580760e-02
 3  1  2     2.1154350539e-01
 3  1  3     5.6613580760e-02
 3  2  1    -2.2789011514e-01
 3  2  2    -3.8577223502e-02
 3  2  3     1.6362400864e-01
 3  3  1    -2.4291115657e-02
 3  3  2    -3.7386979762e-01
 3  3  3     8.8060286712e-02

   29
0.0000000000e+00 0.0000000000e+00 0.0000000000e+00
-2.7319946255e+00 -1.1827516286e-16 2.7319946255e+00
     1      1      2
 1  1  1     2.5003979220e-01
 1  1  2     5.9704089695e-02
 1  1  3    -5.9704089695e-02
 1  2  1     1.1988383525e-01
 1  2  2    -2.4965946055e-02
 1  2  3    -9.2811945151e-02
 1  3  1    -1.1988383525e-01
 1  3  2    -9.2811945151e-02
 1  3  3    -2.4965946055e-02
 2  1  1     1.1988383525e-01
 2  1  2    -2.4965946055e-02
 2  1  3    -9.2811945151e-02
 2  2  1     2.1862792815e-02
 2  2  2    -6.8777012250e-02
 2  2  3    -6.2212300859e-02
 2  3  1    -1.8362904457e-02
 2  3  2    -6.4214391878e-04
 2  3  3     6.4214391878e-04
 3  1  1    -1.1988383525e-01
 3  1  2    -9.2811945151e-02
 3  1  3    -2.4965946055e-02
 3  2  1    -1.8362904457e-02
 3  2  2    -6.4214391878e-04
 3  2  3     6.4214391878e-04
 3  3  1     2.1862792815e-02
 3  3  2     6.2212300859e-02
 3  3  3     6.8777012250e-02

   30
0.0000000000e+00 0.0000000000e+00 0.0000000000e+00
5.5511151231e-16 -2.7319946255e+00 2.7319946255e+00
     1      1      1
 1  1  1     1.2598522797e-03
 1  1  2    -6.1733805196e-02
 1  1  3     6.1733805196e-02
 1  2  1     3.8577223502e-02
 1  2  2     1.6362400864e-01
 1  2  3    -2.2789011514e-01
 1  3  1    -3.8577223502e-02
 1  3  2    -2.2789011514e-01
 1  3  3     1.6362400864e-01
 2  1  1     3.8577223502e-02
 2  1  2     1.6362400864e-01
 2  1  3    -2.2789011514e-01
 2  2  1    -3.7386979762e-01
 2  2  2    -8.8060286712e-02
 2  2  3     2.4291115657e-02
 2  3  1     2.1154350539e-01
 2  3  2    -5.6613580760e-02
 2  3  3     5.6613580760e-02
 3  1  1    -3.8577223502e-02
 3  1  2    -2.2789011514e-01
 3  1  3     1.6362400864e-01
 3  2  1     2.1154350539e-01
 3  2  2    -5.6613580760e-02
 3  2  3     5.6613580760e-02
 3  3  1    -3.7386979762e-01
 3  3  2    -2.4291115657e-02
 3  3  3     8.8060286712e-02

   31
0.0000000000e+00 0.0000000000e+00 0.0000000000e+00
0.0000000000e+00 -2.7319946255e+00 2.7319946255e+00
     1      1      2
 1  1  1    -6.8777012250e-02
 1  1  2     2.1862792815e-02
 1  1  3    -6.2212300859e-02
 1  2  1    -2.4965946055e-02
 1  2  2     1.1988383525e-01
 1  2  3    -9.2811945151e-02
 1  3  1    -6.4214391878e-04
 1  3  2    -1.8362904457e-02
 1  3  3     6.4214391878e-04
 2  1  1    -2.4965946055e-02
 2  1  2     1.1988383525e-01
 2  1  3    -9.2811945151e-02
 2  2  1     5.9704089695e-02
 2  2  2     2.5003979220e-01
 2  2  3    -5.9704089695e-02
 2  3  1    -9.2811945151e-02
 2  3  2    -1.1988383525e-01
 2  3  3    -2.4965946055e-02
 3  1  1    -6.4214391878e-04
 3  1  2    -1.8362904457e-02
 3  1  3     6.4214391878e-04
 3  2  1    -9.2811945151e-02
 3  2  2    -1.1988383525e-01
 3  2  3    -2.4965946055e-02
 3  3  1     6.2212300859e-02
 3  3  2     2.1862792815e-02
 3  3  3     6.8777012250e-02

   32
0.0000000000e+00 0.0000000000e+00 0.0000000000e+00
5.5511151231e-16 7.9166183804e-16 5.4639892509e+00
     1      1      1
 1  1  1     0.0000000000e+00
 1  1  2     0.0000000000e+00
 1  1  3     4.2893041338e-02
 1  2  1     0.0000000000e+00
 1  2  2     0.0000000000e+00
 1  2  3     6.4749413932e-04
 1  3  1    -2.1282934156e-02
 1  3  2    -6.7615760939e-03
 1  3  3     0.0000000000e+00
 2  1  1     0.0000000000e+00
 2  1  2     0.0000000000e+00
 2  1  3     6.4749413932e-04
 2  2  1     0.0000000000e+00
 2  2  2     0.0000000000e+00
 2  2  3     4.2893041338e-02
 2  3  1    -6.7615760939e-03
 2  3  2    -2.1282934156e-02
 2  3  3     0.0000000000e+00
 3  1  1    -2.1282934156e-02
 3  1  2    -6.7615760939e-03
 3  1  3     0.0000000000e+00
 3  2  1    -6.7615760939e-03
 3  2  2    -2.1282934156e-02