 2102

    1
0.0000000000e+00 0.0000000000e+00 0.0000000000e+00
0.0000000000e+00 0.0000000000e+00 0.0000000000e+00
     1      1      1
 1  1  1     0.0000000000e+00
 1  1  2     0.0000000000e+00
 1  1  3     0.0000000000e+00
 1  2  1     0.0000000000e+00
 1  2  2     0.0000000000e+00
 1  2  3    -3.1057626762e+01
 1  3  1     0.0000000000e+00
 1  3  2    -3.1057626762e+01
 1  3  3     0.0000000000e+00
 2  1  1     0.0000000000e+00
 2  1  2     0.0000000000e+00
 2  1  3    -3.1057626762e+01
 2  2  1     0.0000000000e+00
 2  2  2     0.0000000000e+00
 2  2  3     0.0000000000e+00
 2  3  1    -3.1057626762e+01
 2  3  2     0.0000000000e+00
 2  3  3     0.0000000000e+00
 3  1  1     0.0000000000e+00
 3  1  2    -3.1057626762e+01
 3  1  3     0.0000000000e+00
 3  2  1    -3.1057626762e+01
 3  2  2     0.0000000000e+00
 3  2  3     0.0000000000e+00
 3  3  1     0.0000000000e+00
 3  3  2     0.0000000000e+00
 3  3  3     0.0000000000e+00

    2
0.0000000000e+00 0.0000000000e+00 0.0000000000e+00
0.0000000000e+00 0.0000000000e+00 0.0000000000e+00
     1      1      2
 1  1  1     4.3612339076e+00
 1  1  2     5.4210873230e+00
 1  1  3     5.4210873230e+00
 1  2  1     6.1800308720e+00
 1  2  2     6.1800308720e+00
 1  2  3     8.2400760063e+00
 1  3  1     6.1800308720e+00
 1  3  2     8.2400760063e+00
 1  3  3     6.1800308720e+00
 2  1  1     6.1800308720e+00
 2  1  2     6.1800308720e+00
 2  1  3     8.2400760063e+00
 2  2  1     5.4210873230e+00
 2  2  2     4.3612339076e+00
 2  2  3     5.4210873230e+00
 2  3  1     8.2400760063e+00
 2  3  2     6.1800308720e+00
 2  3  3     6.1800308720e+00
 3  1  1     6.1800308720e+00
 3  1  2     8.2400760063e+00
 3  1  3     6.1800308720e+00
 3  2  1     8.2400760063e+00
 3  2  2     6.1800308720e+00
 3  2  3     6.1800308720e+00
 3  3  1     5.4210873230e+00
 3  3  2     5.4210873230e+00
 3  3  3     4.3612339076e+00

    3
0.0000000000e+00 0.0000000000e+00 0.0000000000e+00
0.0000000000e+00 2.7319946255e+00 2.7319946255e+00
     1      1      1
 1  1  1     1.9088508338e-03
 1  1  2     5.9582481858e-02
 1  1  3     5.9582481858e-02
 1  2  1    -2.6053286142e-02
 1  2  2    -1.9803172221e-01
 1  2  3    -2.6132467867e-01
 1  3  1    -2.6053286142e-02
 1  3  2    -2.6132467867e-01
 1  3  3    -1.9803172221e-01
 2  1  1    -2.6053286142e-02
 2  1  2    -1.9803172221e-01
 2  1  3    -2.6132467867e-01
 2  2  1     3.7931639587e-01
 2  2  2     8.7417510897e-02
 2  2  3     2.9037223934e-02
 2  3  1     2.2994906530e-01
 2  3  2    -5.5036663290e-02
 2  3  3    -5.5036663290e-02
 3  1  1    -2.6053286142e-02
 3  1  2    -2.6132467867e-01
 3  1  3    -1.9803172221e-01
 3  2  1     2.2994906530e-01
 3  2  2    -5.5036663290e-02
 3  2  3    -5.5036663290e-02
 3  3  1     3.7931639587e-01
 3  3  2     2.9037223934e-02
 3  3  3     8.7417510897e-02

    4
0.0000000000e+00 0.0000000000e+00 0.0000000000e+00
0.0000000000e+00 2.7319946255e+00 2.7319946255e+00
     1      1      2
 1  1  1     4.3612339076e+00
 1  1  2    -5.4210873230e+00
 1  1  3    -5.4210873230e+00
 1  2  1    -6.1800308720e+00
 1  2  2     6.1800308720e+00
 1  2  3     8.2400760063e+00
 1  3  1    -6.1800308720e+00
 1  3  2     8.2400760063e+00
 1  3  3     6.1800308720e+00
 2  1  1    -6.1800308720e+00
 2  1  2     6.1800308720e+00
 2  1  3     8.2400760063e+00
 2  2  1     5.4210873230e+00
 2  2  2    -4.3612339076e+00
 2  2  3    -5.4210873230e+00
 2  3  1     8.2400760063e+00
 2  3  2    -6.1800308720e+00
 2  3  3    -6.1800308720e+00
 3  1  1    -6.1800308720e+00
 3  1  2     8.2400760063e+00
 3  1  3     6.1800308720e+00
 3  2  1     8.2400760063e+00
 3  2  2    -6.1800308720e+00
 3  2  3    -6.1800308720e+00
 3  3  1     5.4210873230e+00
 3  3  2    -5.4210873230e+00
 3  3  3    -4.3612339076e+00

    5
0.0000000000e+00 0.0000000000e+00 0.0000000000e+00
0.0000000000e+00 5.4639892509e+00 5.4639892509e+00
     1      1      2
 1  1  1    -6.4277581542e-03
 1  1  2     1.3904431085e-02
 1  1  3     1.3904431085e-02
 1  2  1    -9.6078848309e-03
 1  2  2     2.5084173446e-03
 1  2  3    -1.9189183283e-03
 1  3  1    -9.6078848309e-03
 1  3  2    -1.9189183283e-03
 1  3  3     2.5084173446e-03
 2  1  1    -9.6078848309e-03
 2  1  2     2.5084173446e-03
 2  1  3    -1.9189183283e-03
 2  2  1    -2.3501113647e-02
 2  2  2    -1.2212740493e-02
 2  2  3    -1.8427162947e-02
 2  3  1    -2.8111350306e-02
 2  3  2    -8.2594655085e-03
 2  3  3    -8.2594655085e-03
 3  1  1    -9.6078848309e-03
 3  1  2    -1.9189183283e-03
 3  1  3     2.5084173446e-03
 3  2  1    -2.8111350306e-02
 3  2  2    -8.2594655085e-03
 3  2  3    -8.2594655085e-03
 3  3  1    -2.3501113647e-02
 3  3  2    -1.8427162947e-02
 3  3  3    -1.2212740493e-02

    6
0.0000000000e+00 0.0000000000e+00 0.0000000000e+00
0.0000000000e+00 -2.7319946255e+00 -2.7319946255e+00
     1      1      1
 1  1  1     1.9088508338e-03
 1  1  2    -5.9582481858e-02
 1  1  3    -5.9582481858e-02
 1  2  1     2.6053286142e-02
 1  2  2    -1.9803172221e-01
 1  2  3    -2.6132467867e-01
 1  3  1     2.6053286142e-02
 1  3  2    -2.6132467867e-01
 1  3  3    -1.9803172221e-01
 2  1  1     2.6053286142e-02
 2  1  2    -1.9803172221e-01
 2  1  3    -2.6132467867e-01
 2  2  1     3.7931639587e-01
 2  2  2    -8.7417510897e-02
 2  2  3    -2.9037223934e-02
 2  3  1     2.2994906530e-01
 2  3  2     5.5036663290e-02
 2  3  3     5.5036663290e-02
 3  1  1     2.6053286142e-02
 3  1  2    -2.6132467867e-01
 3  1  3    -1.9803172221e-01
 3  2  1     2.2994906530e-01
 3  2  2     5.5036663290e-02
 3  2  3     5.5036663290e-02
 3  3  1     3.7931639587e-01
 3  3  2    -2.9037223934e-02
 3  3  3    -8.7417510897e-02

    7
0.0000000000e+00 0.0000000000e+00 0.0000000000e+00
0.0000000000e+00 -2.7319946255e+00 -2.7319946255e+00
     1      1      2
 1  1  1    -6.4277581542e-03
 1  1  2    -1.3904431085e-02
 1  1  3    -1.3904431085e-02
 1  2  1     9.6078848309e-03
 1  2  2     2.5084173446e-03
 1  2  3    -1.9189183283e-03
 1  3  1     9.6078848309e-03
 1  3  2    -1.9189183283e-03
 1  3  3     2.5084173446e-03
 2  1  1     9.6078848309e-03
 2  1  2     2.5084173446e-03
 2  1  3    -1.9189183283e-03
 2  2  1    -2.3501113647e-02
 2  2  2     1.2212740493e-02
 2  2  3     1.8427162947e-02
 2  3  1    -2.8111350306e-02
 2  3  2     8.2594655085e-03
 2  3  3     8.2594655085e-03
 3  1  1     9.6078848309e-03
 3  1  2    -1.9189183283e-03
 3  1  3     2.5084173446e-03
 3  2  1    -2.8111350306e-02
 3  2  2     8.2594655085e-03
 3  2  3     8.2594655085e-03
 3  3  1    -2.3501113647e-02
 3  3  2     1.8427162947e-02
 3  3  3     1.2212740493e-02

    8
0.0000000000e+00 0.0000000000e+00 0.0000000000e+00
2.7319946255e+00 0.0000000000e+00 2.7319946255e+00
     1      1      1
 1  1  1     8.7417510897e-02
 1  1  2     3.7931639587e-01
 1  1  3     2.9037223934e-02
 1  2  1    -1.9803172221e-01
 1  2  2    -2.6053286142e-02
 1  2  3    -2.6132467867e-01
 1  3  1    -5.5036663290e-02
 1  3  2     2.2994906530e-01
 1  3  3    -5.5036663290e-02
 2  1  1    -1.9803172221e-01
 2  1  2    -2.6053286142e-02
 2  1  3    -2.6132467867e-01
 2  2  1     5.9582481858e-02
 2  2  2     1.9088508338e-03
 2  2  3     5.9582481858e-02
 2  3  1    -2.6132467867e-01
 2  3  2    -2.6053286142e-02
 2  3  3    -1.9803172221e-01
 3  1  1    -5.5036663290e-02
 3  1  2     2.2994906530e-01
 3  1  3    -5.5036663290e-02
 3  2  1    -2.6132467867e-01
 3  2  2    -2.6053286142e-02
 3  2  3    -1.9803172221e-01
 3  3  1     2.9037223934e-02
 3  3  2     3.7931639587e-01
 3  3  3     8.7417510897e-02

    9
0.0000000000e+00 0.0000000000e+00 0.0000000000e+00
2.7319946255e+00 0.0000000000e+00 2.7319946255e+00
     1      1      2
 1  1  1    -4.3612339076e+00
 1  1  2     5.4210873230e+00
 1  1  3    -5.4210873230e+00
 1  2  1     6.1800308720e+00
 1  2  2    -6.1800308720e+00
 1  2  3     8.2400760063e+00
 1  3  1    -6.1800308720e+00
 1  3  2     8.2400760063e+00
 1  3  3    -6.1800308720e+00
 2  1  1     6.1800308720e+00
 2  1  2    -6.1800308720e+00
 2  1  3     8.2400760063e+00
 2  2  1    -5.4210873230e+00
 2  2  2     4.3612339076e+00
 2  2  3    -5.4210873230e+00
 2  3  1     8.2400760063e+00
 2  3  2    -6.1800308720e+00
 2  3  3     6.1800308720e+00
 3  1  1    -6.1800308720e+00
 3  1  2     8.2400760063e+00
 3  1  3    -6.1800308720e+00
 3  2  1     8.2400760063e+00
 3  2  2    -6.1800308720e+00
 3  2  3     6.1800308720e+00
 3  3  1    -5.4210873230e+00
 3  3  2     5.4210873230e+00
 3  3  3    -4.3612339076e+00

   10
0.0000000000e+00 0.0000000000e+00 0.0000000000e+00
2.7319946255e+00 2.7319946255e+00 5.4639892509e+00
     1      1      2
 1  1  1     6.2349254096e-02
 1  1  2    -5.0413340478e-02
 1  1  3    -1.4974565072e-02
 1  2  1    -1.2857861759e-03
 1  2  2    -1.2857861759e-03
 1  2  3    -1.5538667545e-02
 1  3  1     2.1604221029e-02
 1  3  2    -6.5347630060e-02
 1  3  3    -1.1323512938e-01
 2  1  1    -1.2857861759e-03
 2  1  2    -1.2857861759e-03
 2  1  3    -1.5538667545e-02
 2  2  1    -5.0413340478e-02
 2  2  2     6.2349254096e-02
 2  2  3    -1.4974565072e-02
 2  3  1    -6.5347630060e-02
 2  3  2     2.1604221029e-02
 2  3  3    -1.1323512938e-01
 3  1  1     2.1604221029e-02
 3  1  2    -6.5347630060e-02
 3  1  3    -1.1323512938e-01
 3  2  1    -6.5347630060e-02
 3  2  2     2.1604221029e-02
 3  2  3    -1.1323512938e-01
 3  3  1    -6.8073197138e-02
 3  3  2    -6.8073197138e-02
 3  3  3    -2.5068256801e-01

   11
0.0000000000e+00 0.0000000000e+00 0.0000000000e+00
2.7319946255e+00 -2.7319946255e+00 0.0000000000e+00
     1      1      1
 1  1  1     8.7417510897e-02
 1  1  2    -2.9037223934e-02
 1  1  3    -3.7931639587e-01
 1  2  1     5.5036663290e-02
 1  2  2    -5.5036663290e-02
 1  2  3     2.2994906530e-01
 1  3  1     1.9803172221e-01
 1  3  2    -2.6132467867e-01
 1  3  3    -2.6053286142e-02
 2  1  1     5.5036663290e-02
 2  1  2    -5.5036663290e-02
 2  1  3     2.2994906530e-01
 2  2  1     2.9037223934e-02
 2  2  2    -8.7417510897e-02
 2  2  3    -3.7931639587e-01
 2  3  1    -2.6132467867e-01
 2  3  2     1.9803172221e-01
 2  3  3     2.6053286142e-02
 3  1  1     1.9803172221e-01
 3  1  2    -2.6132467867e-01
 3  1  3    -2.6053286142e-02
 3  2  1    -2.6132467867e-01
 3  2  2     1.9803172221e-01
 3  2  3     2.6053286142e-02
 3  3  1     5.9582481858e-02
 3  3  2    -5.9582481858e-02
 3  3  3    -1.9088508338e-03

   12
0.0000000000e+00 0.0000000000e+00 0.0000000000e+00
2.7319946255e+00 -2.7319946255e+00 0.0000000000e+00
     1      1      2
 1  1  1     6.2349254096e-02
 1  1  2     1.4974565072e-02
 1  1  3     5.0413340478e-02
 1  2  1    -2.1604221029e-02
 1  2  2    -1.1323512938e-01
 1  2  3    -6.5347630060e-02
 1  3  1     1.2857861759e-03
 1  3  2    -1.5538667545e-02
 1  3  3    -1.2857861759e-03
 2  1  1    -2.1604221029e-02
 2  1  2    -1.1323512938e-01
 2  1  3    -6.5347630060e-02
 2  2  1    -6.8073197138e-02
 2  2  2     2.5068256801e-01
 2  2  3     6.8073197138e-02
 2  3  1    -6.5347630060e-02
 2  3  2     1.1323512938e-01
 2  3  3    -2.1604221029e-02
 3  1  1     1.2857861759e-03
 3  1  2    -1.5538667545e-02
 3  1  3    -1.2857861759e-03
 3  2  1    -6.5347630060e-02
 3  2  2     1.1323512938e-01
 3  2  3    -2.1604221029e-02
 3  3  1    -5.0413340478e-02
 3  3  2     1.4974565072e-02
 3  3  3    -6.2349254096e-02

   13
0.0000000000e+00 0.0000000000e+00 0.0000000000e+00
5.4639892509e+00 0.0000000000e+00 5.4639892509e+00
     1      1      2
 1  1  1    -1.2212740493e-02
 1  1  2    -2.3501113647e-02
 1  1  3    -1.8427162947e-02
 1  2  1     2.5084173446e-03
 1  2  2    -9.6078848309e-03
 1  2  3    -1.9189183283e-03
 1  3  1    -8.2594655085e-03
 1  3  2    -2.8111350306e-02
 1  3  3    -8.2594655085e-03
 2  1  1     2.5084173446e-03
 2  1  2    -9.6078848309e-03
 2  1  3    -1.9189183283e-03
 2  2  1     1.3904431085e-02
 2  2  2    -6.4277581542e-03
 2  2  3     1.3904431085e-02
 2  3  1    -1.9189183283e-03
 2  3  2    -9.6078848309e-03
 2  3  3     2.5084173446e-03
 3  1  1    -8.2594655085e-03
 3  1  2    -2.8111350306e-02
 3  1  3    -8.2594655085e-03
 3  2  1    -1.9189183283e-03
 3  2  2    -9.6078848309e-03
 3  2  3     2.5084173446e-03
 3  3  1    -1.8427162947e-02
 3  3  2    -2.3501113647e-02
 3  3  3    -1.2212740493e-02

   14
0.0000000000e+00 0.0000000000e+00 0.0000000000e+00
5.4639892509e+00 -2.7319946255e+00 2.7319946255e+00
     1      1      2
 1  1  1    -1.2212740493e-02
 1  1  2     1.8427162947e-02
 1  1  3     2.3501113647e-02
 1  2  1     8.2594655085e-03
 1  2  2    -8.2594655085e-03
 1  2  3    -2.8111350306e-02
 1  3  1    -2.5084173446e-03
 1  3  2    -1.9189183283e-03
 1  3  3    -9.6078848309e-03
 2  1  1     8.2594655085e-03
 2  1  2    -8.2594655085e-03
 2  1  3    -2.8111350306e-02
 2  2  1    -1.8427162947e-02
 2  2  2     1.2212740493e-02
 2  2  3     2.3501113647e-02
 2  3  1    -1.9189183283e-03
 2  3  2    -2.5084173446e-03
 2  3  3     9.6078848309e-03
 3  1  1    -2.5084173446e-03
 3  1  2    -1.9189183283e-03
 3  1  3    -9.6078848309e-03
 3  2  1    -1.9189183283e-03
 3  2  2    -2.5084173446e-03
 3  2  3     9.6078848309e-03
 3  3  1     1.3904431085e-02
 3  3  2    -1.3904431085e-02
 3  3  3     6.4277581542e-03

   15
0.0000000000e+00 0.0000000000e+00 0.0000000000e+00
-2.7319946255e+00 0.0000000000e+00 -2.7319946255e+00
     1      1      1
 1  1  1    -8.7417510897e-02
 1  1  2     3.7931639587e-01
 1  1  3    -2.9037223934e-02
 1  2  1    -1.9803172221e-01
 1  2  2     2.6053286142e-02
 1  2  3    -2.6132467867e-01
 1  3  1     5.5036663290e-02
 1  3  2     2.2994906530e-01
 1  3  3     5.5036663290e-02
 2  1  1    -1.9803172221e-01
 2  1  2     2.6053286142e-02
 2  1  3    -2.6132467867e-01
 2  2  1    -5.9582481858e-02
 2  2  2     1.9088508338e-03
 2  2  3    -5.9582481858e-02
 2  3  1    -2.6132467867e-01
 2  3  2     2.6053286142e-02
 2  3  3    -1.9803172221e-01
 3  1  1     5.5036663290e-02
 3  1  2     2.2994906530e-01
 3  1  3     5.5036663290e-02
 3  2  1    -2.6132467867e-01
 3  2  2     2.6053286142e-02
 3  2  3    -1.9803172221e-01
 3  3  1    -2.9037223934e-02
 3  3  2     3.7931639587e-01
 3  3  3    -8.7417510897e-02

   16
0.0000000000e+00 0.0000000000e+00 0.0000000000e+00
-2.7319946255e+00 0.0000000000e+00 -2.7319946255e+00
     1      1      2
 1  1  1     1.2212740493e-02
 1  1  2    -2.3501113647e-02
 1  1  3     1.8427162947e-02
 1  2  1     2.5084173446e-03
 1  2  2     9.6078848309e-03
 1  2  3    -1.9189183283e-03
 1  3  1     8.2594655085e-03
 1  3  2    -2.8111350306e-02
 1  3  3     8.2594655085e-03
 2  1  1     2.5084173446e-03
 2  1  2     9.6078848309e-03
 2  1  3    -1.9189183283e-03
 2  2  1    -1.3904431085e-02
 2  2  2    -6.4277581542e-03
 2  2  3    -1.3904431085e-02
 2  3  1    -1.9189183283e-03
 2  3  2     9.6078848309e-03
 2  3  3     2.5084173446e-03
 3  1  1     8.2594655085e-03
 3  1  2    -2.8111350306e-02
 3  1  3     8.2594655085e-03
 3  2  1    -1.9189183283e-03
 3  2  2     9.6078848309e-03
 3  2  3     2.5084173446e-03
 3  3  1     1.8427162947e-02
 3  3  2    -2.3501113647e-02
 3  3  3     1.2212740493e-02

   17
0.0000000000e+00 0.0000000000e+00 0.0000000000e+00
-2.7319946255e+00 2.7319946255e+00 0.0000000000e+00
     1      1      1
 1  1  1    -8.7417510897e-02
 1  1  2     2.9037223934e-02
 1  1  3    -3.7931639587e-01
 1  2  1    -5.5036663290e-02
 1  2  2     5.5036663290e-02
 1  2  3     2.2994906530e-01
 1  3  1     1.9803172221e-01
 1  3  2    -2.6132467867e-01
 1  3  3     2.6053286142e-02
 2  1  1    -5.5036663290e-02
 2  1  2     5.5036663290e-02
 2  1  3     2.2994906530e-01
 2  2  1    -2.9037223934e-02
 2  2  2     8.7417510897e-02
 2  2  3    -3.7931639587e-01
 2  3  1    -2.6132467867e-01
 2  3  2     1.9803172221e-01
 2  3  3    -2.6053286142e-02
 3  1  1     1.9803172221e-01
 3  1  2    -2.6132467867e-01
 3  1  3     2.6053286142e-02
 3  2  1    -2.6132467867e-01
 3  2  2     1.9803172221e-01
 3  2  3    -2.6053286142e-02
 3  3  1    -5.9582481858e-02
 3  3  2     5.9582481858e-02
 3  3  3    -1.9088508338e-03

   18
0.0000000000e+00 0.0000000000e+00 0.0000000000e+00
-2.7319946255e+00 2.7319946255e+00 0.0000000000e+00
     1      1      2
 1  1  1     2.5068256801e-01
 1  1  2    -6.8073197138e-02
 1  1  3     6.8073197138e-02
 1  2  1    -1.1323512938e-01
 1  2  2    -2.1604221029e-02
 1  2  3    -6.5347630060e-02
 1  3  1     1.1323512938e-01
 1  3  2    -6.5347630060e-02
 1  3  3    -2.1604221029e-02
 2  1  1    -1.1323512938e-01
 2  1  2    -2.1604221029e-02
 2  1  3    -6.5347630060e-02
 2  2  1     1.4974565072e-02
 2  2  2     6.2349254096e-02
 2  2  3     5.0413340478e-02
 2  3  1    -1.5538667545e-02
 2  3  2     1.2857861759e-03
 2  3  3    -1.2857861759e-03
 3  1  1     1.1323512938e-01
 3  1  2    -6.5347630060e-02
 3  1  3    -2.1604221029e-02
 3  2  1    -1.5538667545e-02
 3  2  2     1.2857861759e-03
 3  2  3    -1.2857861759e-03
 3  3  1     1.4974565072e-02
 3  3  2    -5.0413340478e-02
 3  3  3    -6.2349254096e-02

   19
0.0000000000e+00 0.0000000000e+00 0.0000000000e+00
-2.7319946255e+00 5.4639892509e+00 2.7319946255e+00
     1      1      2
 1  1  1     1.2212740493e-02
 1  1  2    -1.8427162947e-02
 1  1  3     2.3501113647e-02
 1  2  1    -8.2594655085e-03
 1  2  2     8.2594655085e-03
 1  2  3    -2.8111350306e-02
 1  3  1    -2.5084173446e-03
 1  3  2    -1.9189183283e-03
 1  3  3     9.6078848309e-03
 2  1  1    -8.2594655085e-03
 2  1  2     8.2594655085e-03
 2  1  3    -2.8111350306e-02
 2  2  1     1.8427162947e-02
 2  2  2    -1.2212740493e-02
 2  2  3     2.3501113647e-02
 2  3  1    -1.9189183283e-03
 2  3  2    -2.5084173446e-03
 2  3  3    -9.6078848309e-03
 3  1  1    -2.5084173446e-03
 3  1  2    -1.9189183283e-03
 3  1  3     9.6078848309e-03
 3  2  1    -1.9189183283e-03
 3  2  2    -2.5084173446e-03
 3  2  3    -9.6078848309e-03
 3  3  1    -1.3904431085e-02
 3  3  2     1.3904431085e-02
 3  3  3     6.4277581542e-03

   20
0.0000000000e+00 0.0000000000e+00 0.0000000000e+00
2.7319946255e+00 2.7319946255e+00 0.0000000000e+00
     1      1      1
 1  1  1     8.7417510897e-02
 1  1  2     2.9037223934e-02
 1  1  3     3.7931639587e-01
 1  2  1    -5.5036663290e-02
 1  2  2    -5.5036663290e-02
 1  2  3     2.2994906530e-01
 1  3  1    -1.9803172221e-01
 1  3  2    -2.6132467867e-01
 1  3  3    -2.6053286142e-02
 2  1  1    -5.5036663290e-02
 2  1  2    -5.5036663290e-02
 2  1  3     2.2994906530e-01
 2  2  1     2.9037223934e-02
 2  2  2     8.7417510897e-02
 2  2  3     3.7931639587e-01
 2  3  1    -2.6132467867e-01
 2  3  2    -1.9803172221e-01
 2  3  3    -2.6053286142e-02
 3  1  1    -1.9803172221e-01
 3  1  2    -2.6132467867e-01
 3  1  3    -2.6053286142e-02
 3  2  1    -2.6132467867e-01
 3  2  2    -1.9803172221e-01
 3  2  3    -2.6053286142e-02
 3  3  1     5.9582481858e-02
 3  3  2     5.9582481858e-02
 3  3  3     1.9088508338e-03

   21
0.0000000000e+00 0.0000000000e+00 0.0000000000e+00
2.7319946255e+00 2.7319946255e+00 0.0000000000e+00
     1      1      2
 1  1  1    -4.3612339076e+00
 1  1  2    -5.4210873230e+00
 1  1  3     5.4210873230e+00
 1  2  1    -6.1800308720e+00
 1  2  2    -6.1800308720e+00
 1  2  3     8.2400760063e+00
 1  3  1     6.1800308720e+00
 1  3  2     8.2400760063e+00
 1  3  3    -6.1800308720e+00
 2  1  1    -6.1800308720e+00
 2  1  2    -6.1800308720e+00
 2  1  3     8.2400760063e+00
 2  2  1    -5.4210873230e+00
 2  2  2    -4.3612339076e+00
 2  2  3     5.4210873230e+00
 2  3  1     8.2400760063e+00
 2  3  2     6.1800308720e+00
 2  3  3    -6.1800308720e+00
 3  1  1     6.1800308720e+00
 3  1  2     8.2400760063e+00
 3  1  3    -6.1800308720e+00
 3  2  1     8.2400760063e+00
 3  2  2     6.1800308720e+00
 3  2  3    -6.1800308720e+00
 3  3  1    -5.4210873230e+00
 3  3  2    -5.4210873230e+00
 3  3  3     4.3612339076e+00

   22
0.0000000000e+00 0.0000000000e+00 0.0000000000e+00
2.7319946255e+00 5.4639892509e+00 2.7319946255e+00
     1      1      2
 1  1  1     6.2349254096e-02
 1  1  2    -1.4974565072e-02
 1  1  3    -5.0413340478e-02
 1  2  1     2.1604221029e-02
 1  2  2    -1.1323512938e-01
 1  2  3    -6.5347630060e-02
 1  3  1    -1.2857861759e-03
 1  3  2    -1.5538667545e-02
 1  3  3    -1.2857861759e-03
 2  1  1     2.1604221029e-02
 2  1  2    -1.1323512938e-01
 2  1  3    -6.5347630060e-02
 2  2  1    -6.8073197138e-02
 2  2  2    -2.5068256801e-01
 2  2  3    -6.8073197138e-02
 2  3  1    -6.5347630060e-02
 2  3  2    -1.1323512938e-01
 2  3  3     2.1604221029e-02
 3  1  1    -1.2857861759e-03
 3  1  2    -1.5538667545e-02
 3  1  3    -1.2857861759e-03
 3  2  1    -6.5347630060e-02
 3  2  2    -1.1323512938e-01
 3  2  3     2.1604221029e-02
 3  3  1    -5.0413340478e-02
 3  3  2    -1.4974565072e-02
 3  3  3     6.2349254096e-02

   23
0.0000000000e+00 0.0000000000e+00 0.0000000000e+00
2.7319946255e+00 0.0000000000e+00 -2.7319946255e+00
     1      1      1
 1  1  1     8.7417510897e-02
 1  1  2    -3.7931639587e-01
 1  1  3    -2.9037223934e-02
 1  2  1     1.9803172221e-01
 1  2  2    -2.6053286142e-02
 1  2  3    -2.6132467867e-01
 1  3  1     5.5036663290e-02
 1  3  2     2.2994906530e-01
 1  3  3    -5.5036663290e-02
 2  1  1     1.9803172221e-01
 2  1  2    -2.6053286142e-02
 2  1  3    -2.6132467867e-01
 2  2  1     5.9582481858e-02
 2  2  2    -1.9088508338e-03
 2  2  3    -5.9582481858e-02
 2  3  1    -2.6132467867e-01
 2  3  2     2.6053286142e-02
 2  3  3     1.9803172221e-01
 3  1  1     5.5036663290e-02
 3  1  2     2.2994906530e-01
 3  1  3    -5.5036663290e-02
 3  2  1    -2.6132467867e-01
 3  2  2     2.6053286142e-02
 3  2  3     1.9803172221e-01
 3  3  1     2.9037223934e-02
 3  3  2    -3.7931639587e-01
 3  3  3    -8.7417510897e-02

   24
0.0000000000e+00 0.0000000000e+00 0.0000000000e+00
2.7319946255e+00 0.0000000000e+00 -2.7319946255e+00
     1      1      2
 1  1  1     6.2349254096e-02
 1  1  2     5.0413340478e-02
 1  1  3     1.4974565072e-02
 1  2  1     1.2857861759e-03
 1  2  2    -1.2857861759e-03
 1  2  3    -1.5538667545e-02
 1  3  1    -2.1604221029e-02
 1  3  2    -6.5347630060e-02
 1  3  3    -1.1323512938e-01
 2  1  1     1.2857861759e-03
 2  1  2    -1.2857861759e-03
 2  1  3    -1.5538667545e-02
 2  2  1    -5.0413340478e-02
 2  2  2    -6.2349254096e-02
 2  2  3     1.4974565072e-02
 2  3  1    -6.5347630060e-02
 2  3  2    -2.1604221029e-02
 2  3  3     1.1323512938e-01
 3  1  1    -2.1604221029e-02
 3  1  2    -6.5347630060e-02
 3  1  3    -1.1323512938e-01
 3  2  1    -6.5347630060e-02
 3  2  2    -2.1604221029e-02
 3  2  3     1.1323512938e-01
 3  3  1    -6.8073197138e-02
 3  3  2     6.8073197138e-02
 3  3  3     2.5068256801e-01

   25
0.0000000000e+00 0.0000000000e+00 0.0000000000e+00
5.4639892509e+00 2.7319946255e+00 2.7319946255e+00
     1      1      2
 1  1  1    -2.5068256801e-01
 1  1  2    -6.8073197138e-02
 1  1  3    -6.8073197138e-02
 1  2  1    -1.1323512938e-01
 1  2  2     2.1604221029e-02
 1  2  3    -6.5347630060e-02
 1  3  1    -1.1323512938e-01
 1  3  2    -6.5347630060e-02
 1  3  3     2.1604221029e-02
 2  1  1    -1.1323512938e-01
 2  1  2     2.1604221029e-02
 2  1  3    -6.5347630060e-02
 2  2  1    -1.4974565072e-02
 2  2  2     6.2349254096e-02
 2  2  3    -5.0413340478e-02
 2  3  1    -1.5538667545e-02
 2  3  2    -1.2857861759e-03
 2  3  3    -1.2857861759e-03
 3  1  1    -1.1323512938e-01
 3  1  2    -6.5347630060e-02
 3  1  3     2.1604221029e-02
 3  2  1    -1.5538667545e-02
 3  2  2    -1.2857861759e-03
 3  2  3    -1.2857861759e-03
 3  3  1    -1.4974565072e-02
 3  3  2    -5.0413340478e-02
 3  3  3     6.2349254096e-02

   26
0.0000000000e+00 0.0000000000e+00 0.0000000000e+00
5.4639892509e+00 0.0000000000e+00 0.0000000000e+00
     1      1      1
 1  1  1     7.2633667142e-02
 1  1  2     0.0000000000e+00
 1  1  3     0.0000000000e+00
 1  2  1     0.0000000000e+00
 1  2  2    -1.6216162180e-02
 1  2  3    -2.9974058061e-03
 1  3  1     0.0000000000e+00
 1  3  2    -2.9974058061e-03
 1  3  3    -1.6216162180e-02
 2  1  1     0.0000000000e+00
 2  1  2    -1.6216162180e-02
 2  1  3    -2.9974058061e-03
 2  2  1     4.4612873058e-02
 2  2  2     0.0000000000e+00
 2  2  3     0.0000000000e+00
 2  3  1    -3.5770224734e-03
 2  3  2     0.0000000000e+00
 2  3  3     0.0000000000e+00
 3  1  1     0.0000000000e+00
 3  1  2    -2.9974058061e-03
 3  1  3    -1.6216162180e-02
 3  2  1    -3.5770224734e-03
 3  2  2     0.0000000000e+00
 3  2  3     0.0000000000e+00
 3  3  1     4.4612873058e-02
 3  3  2     0.0000000000e+00
 3  3  3     0.0000000000e+00

   27
0.0000000000e+00 0.0000000000e+00 0.0000000000e+00
5.4639892509e+00 0.0000000000e+00 0.0000000000e+00
     1      1      2
 1  1  1    -2.5068256801e-01
 1  1  2     6.8073197138e-02
 1  1  3     6.8073197138e-02
 1  2  1     1.1323512938e-01
 1  2  2     2.1604221029e-02
 1  2  3    -6.5347630060e-02
 1  3  1     1.1323512938e-01
 1  3  2    -6.5347630060e-02
 1  3  3     2.1604221029e-02
 2  1  1     1.1323512938e-01
 2  1  2     2.1604221029e-02
 2  1  3    -6.5347630060e-02
 2  2  1    -1.4974565072e-02
 2  2  2    -6.2349254096e-02
 2  2  3     5.0413340478e-02
 2  3  1    -1.5538667545e-02
 2  3  2     1.2857861759e-03
 2  3  3     1.2857861759e-03
 3  1  1     1.1323512938e-01
 3  1  2    -6.5347630060e-02
 3  1  3     2.1604221029e-02
 3  2  1    -1.5538667545e-02
 3  2  2     1.2857861759e-03
 3  2  3     1.2857861759e-03
 3  3  1    -1.4974565072e-02
 3  3  2     5.0413340478e-02
 3  3  3    -6.2349254096e-02

   28
0.0000000000e+00 0.0000000000e+00 0.0000000000e+00
0.0000000000e+00 2.7319946255e+00 -2.7319946255e+00
     1      1      1
 1  1  1    -1.9088508338e-03
 1  1  2     5.9582481858e-02
 1  1  3    -5.9582481858e-02
 1  2  1    -2.6053286142e-02
 1  2  2     1.9803172221e-01
 1  2  3    -2.6132467867e-01
 1  3  1     2.6053286142e-02
 1  3  2    -2.6132467867e-01
 1  3  3     1.9803172221e-01
 2  1  1    -2.6053286142e-02
 2  1  2     1.9803172221e-01
 2  1  3    -2.6132467867e-01
 2  2  1    -3.7931639587e-01
 2  2  2     8.7417510897e-02
 2  2  3    -2.9037223934e-02
 2  3  1     2.2994906530e-01
 2  3  2     5.5036663290e-02
 2  3  3    -5.5036663290e-02
 3  1  1     2.6053286142e-02
 3  1  2    -2.6132467867e-01
 3  1  3     1.9803172221e-01
 3  2  1     2.2994906530e-01
 3  2  2     5.5036663290e-02
 3  2  3    -5.5036663290e-02
 3  3  1    -3.7931639587e-01
 3  3  2     2.9037223934e-02
 3  3  3    -8.7417510897e-02

   29
0.0000000000e+00 0.0000000000e+00 0.0000000000e+00
0.0000000000e+00 2.7319946255e+00 -2.7319946255e+00
     1      1      2
 1  1  1    -6.2349254096e-02
 1  1  2    -5.0413340478e-02
 1  1  3     1.4974565072e-02
 1  2  1    -1.2857861759e-03
 1  2  2     1.2857861759e-03
 1  2  3    -1.5538667545e-02
 1  3  1    -2.1604221029e-02
 1  3  2    -6.5347630060e-02
 1  3  3     1.1323512938e-01
 2  1  1    -1.2857861759e-03
 2  1  2     1.2857861759e-03
 2  1  3    -1.5538667545e-02
 2  2  1     5.0413340478e-02
 2  2  2     6.2349254096e-02
 2  2  3     1.4974565072e-02
 2  3  1    -6.5347630060e-02
 2  3  2    -2.1604221029e-02
 2  3  3    -1.1323512938e-01
 3  1  1    -2.1604221029e-02
 3  1  2    -6.5347630060e-02
 3  1  3     1.1323512938e-01
 3  2  1    -6.5347630060e-02
 3  2  2    -2.1604221029e-02
 3  2  3    -1.1323512938e-01
 3  3  1     6.8073197138e-02
 3  3  2    -6.8073197138e-02
 3  3  3     2.5068256801e-01

   30
0.0000000000e+00 0.0000000000e+00 0.0000000000e+00
0.0000000000e+00 5.4639892509e+00 0.0000000000e+00
     1      1      1
 1  1  1     0.0000000000e+00
 1  1  2     4.4612873058e-02
 1  1  3     0.0000000000e+00
 1  2  1    -1.6216162180e-02
 1  2  2     0.0000000000e+00
 1  2  3    -2.9974058061e-03
 1  3  1     0.0000000000e+00
 1  3  2    -3.5770224734e-03
 1  3  3     0.0000000000e+00
 2  1  1    -1.6216162180e-02
 2  1  2     0.0000000000e+00
 2  1  3    -2.9974058061e-03
 2  2  1     0.0000000000e+00
 2  2  2     7.2633667142e-02
 2  2  3     0.0000000000e+00
 2  3  1    -2.9974058061e-03
 2  3  2     0.0000000000e+00
 2  3  3    -1.6216162180e-02
 3  1  1     0.0000000000e+00
 3  1  2    -3.5770224734e-03
 3  1  3     0.0000000000e+00
 3  2  1    -2.9974058061e-03
 3  2  2     0.0000000000e+00
 3  2  3    -1.6216162180e-02
 3  3  1     0.0000000000e+00
 3  3  2     4.4612873058e-02
 3  3  3     0.0000000000e+00

   31
0.0000000000e+00 0.0000000000e+00 0.0000000000e+00
0.0000000000e+00 5.4639892509e+00 0.0000000000e+00
     1      1      2
 1  1  1    -6.2349254096e-02
 1  1  2    -1.4974565072e-02
 1  1  3     5.0413340478e-02
 1  2  1     2.1604221029e-02
 1  2  2     1.1323512938e-01
 1  2  3    -6.5347630060e-02
 1  3  1     1.2857861759e-03
 1  3  2    -1.5538667545e-02
 1  3  3     1.2857861759e-03
 2  1  1     2.1604221029e-02
 2  1  2     1.1323512938e-01
 2  1  3    -6.5347630060e-02
 2  2  1     6.8073197138e-02
 2  2  2    -2.5068256801e-01
 2  2  3     6.8073197138e-02
 2  3  1    -6.5347630060e-02
 2  3  2     1.1323512938e-01
 2  3  3     2.1604221029e-02
 3  1  1     1.2857861759e-03
 3  1  2    -1.5538667545e-02
 3  1  3     1.2857861759e-03
 3  2  1    -6.5347630060e-02
 3  2  2     1.1323512938e-01
 3  2  3     2.1604221029e-02
 3  3  1     5.0413340478e-02
 3  3  2    -1.4974565072e-02
 3  3  3    -6.2349254096e-02

   32
0.0000000000e+00 0.0000000000e+00 0.0000000000e+00
0.0000000000e+00 0.0000000000e+00 -5.4639892509e+00
     1      1      1
 1  1  1     0.0000000000e+00
 1  1  2     0.0000000000e+00
 1  1  3    -4.4612873058e-02
 1  2  1     0.0000000000e+00
 1  2  2     0.0000000000e+00
 1  2  3    -3.5770224734e-03
 1  3  1     1.6216162180e-02
 1  3  2    -2.9974058061e-03
 1  3  3     0.0000000000e+00
 2  1  1     0.0000000000e+00
 2  1  2     0.0000000000e+00
 2  1  3    -3.5770224734e-03
 2  2  1     0.0000000000e+00
 2  2  2     0.0000000000e+00
 2  2  3    -4.4612873058e-02
 2  3  1    -2.9974058061e-03
 2  3  2     1.6216162180e-02
 2  3  3     0.0000000000e+00
 3  1  1     1.6216162180e-02
 3  1  2    -2.9974058061e-03
 3  1  3     0.0000000000e+00
 3  2  1    -2.9974058061e-03
 3  2  2     1.6216162180e-02