 1166

    1
0.0000000000e+00 0.0000000000e+00 0.0000000000e+00
0.0000000000e+00 0.0000000000e+00 0.0000000000e+00
     1      1      1
 1  1  1     0.0000000000e+00
 1  1  2     0.0000000000e+00
 1  1  3     0.0000000000e+00
 1  2  1     0.0000000000e+00
 1  2  2     0.0000000000e+00
 1  2  3    -3.1043313006e+01
 1  3  1     0.0000000000e+00
 1  3  2    -3.1043313006e+01
 1  3  3     0.0000000000e+00
 2  1  1     0.0000000000e+00
 2  1  2     0.0000000000e+00
 2  1  3    -3.1043313006e+01
 2  2  1     0.0000000000e+00
 2  2  2     0.0000000000e+00
 2  2  3     0.0000000000e+00
 2  3  1    -3.1043313006e+01
 2  3  2     0.0000000000e+00
 2  3  3     0.0000000000e+00
 3  1  1     0.0000000000e+00
 3  1  2    -3.1043313006e+01
 3  1  3     0.0000000000e+00
 3  2  1    -3.1043313006e+01
 3  2  2     0.0000000000e+00
 3  2  3     0.0000000000e+00
 3  3  1     0.0000000000e+00
 3  3  2     0.0000000000e+00
 3  3  3     0.0000000000e+00

    2
0.0000000000e+00 0.0000000000e+00 0.0000000000e+00
0.0000000000e+00 0.0000000000e+00 0.0000000000e+00
     1      1      2
 1  1  1     4.3593055802e+00
 1  1  2     5.4210192003e+00
 1  1  3     5.4210192003e+00
 1  2  1     6.1826729371e+00
 1  2  2     6.1826729371e+00
 1  2  3     8.2414440131e+00
 1  3  1     6.1826729371e+00
 1  3  2     8.2414440131e+00
 1  3  3     6.1826729371e+00
 2  1  1     6.1826729371e+00
 2  1  2     6.1826729371e+00
 2  1  3     8.2414440131e+00
 2  2  1     5.4210192003e+00
 2  2  2     4.3593055802e+00
 2  2  3     5.4210192003e+00
 2  3  1     8.2414440131e+00
 2  3  2     6.1826729371e+00
 2  3  3     6.1826729371e+00
 3  1  1     6.1826729371e+00
 3  1  2     8.2414440131e+00
 3  1  3     6.1826729371e+00
 3  2  1     8.2414440131e+00
 3  2  2     6.1826729371e+00
 3  2  3     6.1826729371e+00
 3  3  1     5.4210192003e+00
 3  3  2     5.4210192003e+00
 3  3  3     4.3593055802e+00

    3
0.0000000000e+00 0.0000000000e+00 0.0000000000e+00
0.0000000000e+00 2.7319946255e+00 2.7319946255e+00
     1      1      1
 1  1  1    -6.5437228631e-04
 1  1  2     5.9467902217e-02
 1  1  3     5.9467902217e-02
 1  2  1    -2.4595549523e-02
 1  2  2    -1.4624446868e-01
 1  2  3    -2.3407147968e-01
 1  3  1    -2.4595549523e-02
 1  3  2    -2.3407147968e-01
 1  3  3    -1.4624446868e-01
 2  1  1    -2.4595549523e-02
 2  1  2    -1.4624446868e-01
 2  1  3    -2.3407147968e-01
 2  2  1     3.6458505380e-01
 2  2  2     8.2918080189e-02
 2  2  3     2.8739396719e-02
 2  3  1     2.1102502831e-01
 2  3  2    -5.9678866750e-02
 2  3  3    -5.9678866750e-02
 3  1  1    -2.4595549523e-02
 3  1  2    -2.3407147968e-01
 3  1  3    -1.4624446868e-01
 3  2  1     2.1102502831e-01
 3  2  2    -5.9678866750e-02
 3  2  3    -5.9678866750e-02
 3  3  1     3.6458505380e-01
 3  3  2     2.8739396719e-02
 3  3  3     8.2918080189e-02

    4
0.0000000000e+00 0.0000000000e+00 0.0000000000e+00
0.0000000000e+00 2.7319946255e+00 2.7319946255e+00
     1      1      2
 1  1  1     4.3593055802e+00
 1  1  2    -5.4210192003e+00
 1  1  3    -5.4210192003e+00
 1  2  1    -6.1826729371e+00
 1  2  2     6.1826729371e+00
 1  2  3     8.2414440131e+00
 1  3  1    -6.1826729371e+00
 1  3  2     8.2414440131e+00
 1  3  3     6.1826729371e+00
 2  1  1    -6.1826729371e+00
 2  1  2     6.1826729371e+00
 2  1  3     8.2414440131e+00
 2  2  1     5.4210192003e+00
 2  2  2    -4.3593055802e+00
 2  2  3    -5.4210192003e+00
 2  3  1     8.2414440131e+00
 2  3  2    -6.1826729371e+00
 2  3  3    -6.1826729371e+00
 3  1  1    -6.1826729371e+00
 3  1  2     8.2414440131e+00
 3  1  3     6.1826729371e+00
 3  2  1     8.2414440131e+00
 3  2  2    -6.1826729371e+00
 3  2  3    -6.1826729371e+00
 3  3  1     5.4210192003e+00
 3  3  2    -5.4210192003e+00
 3  3  3    -4.3593055802e+00

    5
0.0000000000e+00 0.0000000000e+00 0.0000000000e+00
0.0000000000e+00 -2.7319946255e+00 -2.7319946255e+00
     1      1      1
 1  1  1    -6.5437228631e-04
 1  1  2    -5.9467902217e-02
 1  1  3    -5.9467902217e-02
 1  2  1     2.4595549523e-02
 1  2  2    -1.4624446868e-01
 1  2  3    -2.3407147968e-01
 1  3  1     2.4595549523e-02
 1  3  2    -2.3407147968e-01
 1  3  3    -1.4624446868e-01
 2  1  1     2.4595549523e-02
 2  1  2    -1.4624446868e-01
 2  1  3    -2.3407147968e-01
 2  2  1     3.6458505380e-01
 2  2  2    -8.2918080189e-02
 2  2  3    -2.8739396719e-02
 2  3  1     2.1102502831e-01
 2  3  2     5.9678866750e-02
 2  3  3     5.9678866750e-02
 3  1  1     2.4595549523e-02
 3  1  2    -2.3407147968e-01
 3  1  3    -1.4624446868e-01
 3  2  1     2.1102502831e-01
 3  2  2     5.9678866750e-02
 3  2  3     5.9678866750e-02
 3  3  1     3.6458505380e-01
 3  3  2    -2.8739396719e-02
 3  3  3    -8.2918080189e-02

    6
0.0000000000e+00 0.0000000000e+00 0.0000000000e+00
2.7319946255e+00 0.0000000000e+00 2.7319946255e+00
     1      1      1
 1  1  1     8.2918080189e-02
 1  1  2     3.6458505380e-01
 1  1  3     2.8739396719e-02
 1  2  1    -1.4624446868e-01
 1  2  2    -2.4595549523e-02
 1  2  3    -2.3407147968e-01
 1  3  1    -5.9678866750e-02
 1  3  2     2.1102502831e-01
 1  3  3    -5.9678866750e-02
 2  1  1    -1.4624446868e-01
 2  1  2    -2.4595549523e-02
 2  1  3    -2.3407147968e-01
 2  2  1     5.9467902217e-02
 2  2  2    -6.5437228631e-04
 2  2  3     5.9467902217e-02
 2  3  1    -2.3407147968e-01
 2  3  2    -2.4595549523e-02
 2  3  3    -1.4624446868e-01
 3  1  1    -5.9678866750e-02
 3  1  2     2.1102502831e-01
 3  1  3    -5.9678866750e-02
 3  2  1    -2.3407147968e-01
 3  2  2    -2.4595549523e-02
 3  2  3    -1.4624446868e-01
 3  3  1     2.8739396719e-02
 3  3  2     3.6458505380e-01
 3  3  3     8.2918080189e-02

    7
0.0000000000e+00 0.0000000000e+00 0.0000000000e+00
2.7319946255e+00 0.0000000000e+00 2.7319946255e+00
     1      1      2
 1  1  1    -4.3593055802e+00
 1  1  2     5.4210192003e+00
 1  1  3    -5.4210192003e+00
 1  2  1     6.1826729371e+00
 1  2  2    -6.1826729371e+00
 1  2  3     8.2414440131e+00
 1  3  1    -6.1826729371e+00
 1  3  2     8.2414440131e+00
 1  3  3    -6.1826729371e+00
 2  1  1     6.1826729371e+00
 2  1  2    -6.1826729371e+00
 2  1  3     8.2414440131e+00
 2  2  1    -5.4210192003e+00
 2  2  2     4.3593055802e+00
 2  2  3    -5.4210192003e+00
 2  3  1     8.2414440131e+00
 2  3  2    -6.1826729371e+00
 2  3  3     6.1826729371e+00
 3  1  1    -6.1826729371e+00
 3  1  2     8.2414440131e+00
 3  1  3    -6.1826729371e+00
 3  2  1     8.2414440131e+00
 3  2  2    -6.1826729371e+00
 3  2  3     6.1826729371e+00
 3  3  1    -5.4210192003e+00
 3  3  2     5.4210192003e+00
 3  3  3    -4.3593055802e+00

    8
0.0000000000e+00 0.0000000000e+00 0.0000000000e+00
2.7319946255e+00 2.7319946255e+00 5.4639892509e+00
     1      1      2
 1  1  1     5.9778150834e-02
 1  1  2    -5.7526248112e-02
 1  1  3    -1.9087973195e-02
 1  2  1    -2.5494267285e-03
 1  2  2    -2.5494267285e-03
 1  2  3    -1.6485671123e-02
 1  3  1     2.6220864784e-02
 1  3  2    -9.9425347931e-02
 1  3  3    -1.0722466655e-01
 2  1  1    -2.5494267285e-03
 2  1  2    -2.5494267285e-03
 2  1  3    -1.6485671123e-02
 2  2  1    -5.7526248112e-02
 2  2  2     5.9778150834e-02
 2  2  3    -1.9087973195e-02
 2  3  1    -9.9425347931e-02
 2  3  2     2.6220864784e-02
 2  3  3    -1.0722466655e-01
 3  1  1     2.6220864784e-02
 3  1  2    -9.9425347931e-02
 3  1  3    -1.0722466655e-01
 3  2  1    -9.9425347931e-02
 3  2  2     2.6220864784e-02
 3  2  3    -1.0722466655e-01
 3  3  1    -6.5840238467e-02
 3  3  2    -6.5840238467e-02
 3  3  3    -2.4875424057e-01

    9
0.0000000000e+00 0.0000000000e+00 0.0000000000e+00
2.7319946255e+00 -2.7319946255e+00 0.0000000000e+00
     1      1      1
 1  1  1     8.2918080189e-02
 1  1  2    -2.8739396719e-02
 1  1  3    -3.6458505380e-01
 1  2  1     5.9678866750e-02
 1  2  2    -5.9678866750e-02
 1  2  3     2.1102502831e-01
 1  3  1     1.4624446868e-01
 1  3  2    -2.3407147968e-01
 1  3  3    -2.4595549523e-02
 2  1  1     5.9678866750e-02
 2  1  2    -5.9678866750e-02
 2  1  3     2.1102502831e-01
 2  2  1     2.8739396719e-02
 2  2  2    -8.2918080189e-02
 2  2  3    -3.6458505380e-01
 2  3  1    -2.3407147968e-01
 2  3  2     1.4624446868e-01
 2  3  3     2.4595549523e-02
 3  1  1     1.4624446868e-01
 3  1  2    -2.3407147968e-01
 3  1  3    -2.4595549523e-02
 3  2  1    -2.3407147968e-01
 3  2  2     1.4624446868e-01
 3  2  3     2.4595549523e-02
 3  3  1     5.9467902217e-02
 3  3  2    -5.9467902217e-02
 3  3  3     6.5437228631e-04

   10
0.0000000000e+00 0.0000000000e+00 0.0000000000e+00
2.7319946255e+00 -2.7319946255e+00 0.0000000000e+00
     1      1      2
 1  1  1     5.9778150834e-02
 1  1  2     1.9087973195e-02
 1  1  3     5.7526248112e-02
 1  2  1    -2.6220864784e-02
 1  2  2    -1.0722466655e-01
 1  2  3    -9.9425347931e-02
 1  3  1     2.5494267285e-03
 1  3  2    -1.6485671123e-02
 1  3  3    -2.5494267285e-03
 2  1  1    -2.6220864784e-02
 2  1  2    -1.0722466655e-01
 2  1  3    -9.9425347931e-02
 2  2  1    -6.5840238467e-02
 2  2  2     2.4875424057e-01
 2  2  3     6.5840238467e-02
 2  3  1    -9.9425347931e-02
 2  3  2     1.0722466655e-01
 2  3  3    -2.6220864784e-02
 3  1  1     2.5494267285e-03
 3  1  2    -1.6485671123e-02
 3  1  3    -2.5494267285e-03
 3  2  1    -9.9425347931e-02
 3  2  2     1.0722466655e-01
 3  2  3    -2.6220864784e-02
 3  3  1    -5.7526248112e-02
 3  3  2     1.9087973195e-02
 3  3  3    -5.9778150834e-02

   11
0.0000000000e+00 0.0000000000e+00 0.0000000000e+00
-2.7319946255e+00 0.0000000000e+00 -2.7319946255e+00
     1      1      1
 1  1  1    -8.2918080189e-02
 1  1  2     3.6458505380e-01
 1  1  3    -2.8739396719e-02
 1  2  1    -1.4624446868e-01
 1  2  2     2.4595549523e-02
 1  2  3    -2.3407147968e-01
 1  3  1     5.9678866750e-02
 1  3  2     2.1102502831e-01
 1  3  3     5.9678866750e-02
 2  1  1    -1.4624446868e-01
 2  1  2     2.4595549523e-02
 2  1  3    -2.3407147968e-01
 2  2  1    -5.9467902217e-02
 2  2  2    -6.5437228631e-04
 2  2  3    -5.9467902217e-02
 2  3  1    -2.3407147968e-01
 2  3  2     2.4595549523e-02
 2  3  3    -1.4624446868e-01
 3  1  1     5.9678866750e-02
 3  1  2     2.1102502831e-01
 3  1  3     5.9678866750e-02
 3  2  1    -2.3407147968e-01
 3  2  2     2.4595549523e-02
 3  2  3    -1.4624446868e-01
 3  3  1    -2.8739396719e-02
 3  3  2     3.6458505380e-01
 3  3  3    -8.2918080189e-02

   12
0.0000000000e+00 0.0000000000e+00 0.0000000000e+00
-2.7319946255e+00 2.7319946255e+00 0.0000000000e+00
     1      1      1
 1  1  1    -8.2918080189e-02
 1  1  2     2.8739396719e-02
 1  1  3    -3.6458505380e-01
 1  2  1    -5.9678866750e-02
 1  2  2     5.9678866750e-02
 1  2  3     2.1102502831e-01
 1  3  1     1.4624446868e-01
 1  3  2    -2.3407147968e-01
 1  3  3     2.4595549523e-02
 2  1  1    -5.9678866750e-02
 2  1  2     5.9678866750e-02
 2  1  3     2.1102502831e-01
 2  2  1    -2.8739396719e-02
 2  2  2     8.2918080189e-02
 2  2  3    -3.6458505380e-01
 2  3  1    -2.3407147968e-01
 2  3  2     1.4624446868e-01
 2  3  3    -2.4595549523e-02
 3  1  1     1.4624446868e-01
 3  1  2    -2.3407147968e-01
 3  1  3     2.4595549523e-02
 3  2  1    -2.3407147968e-01
 3  2  2     1.4624446868e-01
 3  2  3    -2.4595549523e-02
 3  3  1    -5.9467902217e-02
 3  3  2     5.9467902217e-02
 3  3  3     6.5437228631e-04

   13
0.0000000000e+00 0.0000000000e+00 0.0000000000e+00
-2.7319946255e+00 2.7319946255e+00 0.0000000000e+00
     1      1      2
 1  1  1     2.4875424057e-01
 1  1  2    -6.5840238467e-02
 1  1  3     6.5840238467e-02
 1  2  1    -1.0722466655e-01
 1  2  2    -2.6220864784e-02
 1  2  3    -9.9425347931e-02
 1  3  1     1.0722466655e-01
 1  3  2    -9.9425347931e-02
 1  3  3    -2.6220864784e-02
 2  1  1    -1.0722466655e-01
 2  1  2    -2.6220864784e-02
 2  1  3    -9.9425347931e-02
 2  2  1     1.9087973195e-02
 2  2  2     5.9778150834e-02
 2  2  3     5.7526248112e-02
 2  3  1    -1.6485671123e-02
 2  3  2     2.5494267285e-03
 2  3  3    -2.5494267285e-03
 3  1  1     1.0722466655e-01
 3  1  2    -9.9425347931e-02
 3  1  3    -2.6220864784e-02
 3  2  1    -1.6485671123e-02
 3  2  2     2.5494267285e-03
 3  2  3    -2.5494267285e-03
 3  3  1     1.9087973195e-02
 3  3  2    -5.7526248112e-02
 3  3  3    -5.9778150834e-02

   14
0.0000000000e+00 0.0000000000e+00 0.0000000000e+00
2.7319946255e+00 2.7319946255e+00 0.0000000000e+00
     1      1      1
 1  1  1     8.2918080189e-02
 1  1  2     2.8739396719e-02
 1  1  3     3.6458505380e-01
 1  2  1    -5.9678866750e-02
 1  2  2    -5.9678866750e-02
 1  2  3     2.1102502831e-01
 1  3  1    -1.4624446868e-01
 1  3  2    -2.3407147968e-01
 1  3  3    -2.4595549523e-02
 2  1  1    -5.9678866750e-02
 2  1  2    -5.9678866750e-02
 2  1  3     2.1102502831e-01
 2  2  1     2.8739396719e-02
 2  2  2     8.2918080189e-02
 2  2  3     3.6458505380e-01
 2  3  1    -2.3407147968e-01
 2  3  2    -1.4624446868e-01
 2  3  3    -2.4595549523e-02
 3  1  1    -1.4624446868e-01
 3  1  2    -2.3407147968e-01
 3  1  3    -2.4595549523e-02
 3  2  1    -2.3407147968e-01
 3  2  2    -1.4624446868e-01
 3  2  3    -2.4595549523e-02
 3  3  1     5.9467902217e-02
 3  3  2     5.9467902217e-02
 3  3  3    -6.5437228631e-04

   15
0.0000000000e+00 0.0000000000e+00 0.0000000000e+00
2.7319946255e+00 2.7319946255e+00 0.0000000000e+00
     1      1      2
 1  1  1    -4.3593055802e+00
 1  1  2    -5.4210192003e+00
 1  1  3     5.4210192003e+00
 1  2  1    -6.1826729371e+00
 1  2  2    -6.1826729371e+00
 1  2  3     8.2414440131e+00
 1  3  1     6.1826729371e+00
 1  3  2     8.2414440131e+00
 1  3  3    -6.1826729371e+00
 2  1  1    -6.1826729371e+00
 2  1  2    -6.1826729371e+00
 2  1  3     8.2414440131e+00
 2  2  1    -5.4210192003e+00
 2  2  2    -4.3593055802e+00
 2  2  3     5.4210192003e+00
 2  3  1     8.2414440131e+00
 2  3  2     6.1826729371e+00
 2  3  3    -6.1826729371e+00
 3  1  1     6.1826729371e+00
 3  1  2     8.2414440131e+00
 3  1  3    -6.1826729371e+00
 3  2  1     8.2414440131e+00
 3  2  2     6.1826729371e+00
 3  2  3    -6.1826729371e+00
 3  3  1    -5.4210192003e+00
 3  3  2    -5.4210192003e+00
 3  3  3     4.3593055802e+00

   16
0.0000000000e+00 0.0000000000e+00 0.0000000000e+00
2.7319946255e+00 5.4639892509e+00 2.7319946255e+00
     1      1      2
 1  1  1     5.9778150834e-02
 1  1  2    -1.9087973195e-02
 1  1  3    -5.7526248112e-02
 1  2  1     2.6220864784e-02
 1  2  2    -1.0722466655e-01
 1  2  3    -9.9425347931e-02
 1  3  1    -2.5494267285e-03
 1  3  2    -1.6485671123e-02
 1  3  3    -2.5494267285e-03
 2  1  1     2.6220864784e-02
 2  1  2    -1.0722466655e-01
 2  1  3    -9.9425347931e-02
 2  2  1    -6.5840238467e-02
 2  2  2    -2.4875424057e-01
 2  2  3    -6.5840238467e-02
 2  3  1    -9.9425347931e-02
 2  3  2    -1.0722466655e-01
 2  3  3     2.6220864784e-02
 3  1  1    -2.5494267285e-03
 3  1  2    -1.6485671123e-02
 3  1  3    -2.5494267285e-03
 3  2  1    -9.9425347931e-02
 3  2  2    -1.0722466655e-01
 3  2  3     2.6220864784e-02
 3  3  1    -5.7526248112e-02
 3  3  2    -1.9087973195e-02
 3  3  3     5.9778150834e-02

   17
0.0000000000e+00 0.0000000000e+00 0.0000000000e+00
2.7319946255e+00 0.0000000000e+00 -2.7319946255e+00
     1      1      1
 1  1  1     8.2918080189e-02
 1  1  2    -3.6458505380e-01
 1  1  3    -2.8739396719e-02
 1  2  1     1.4624446868e-01
 1  2  2    -2.4595549523e-02
 1  2  3    -2.3407147968e-01
 1  3  1     5.9678866750e-02
 1  3  2     2.1102502831e-01
 1  3  3    -5.9678866750e-02
 2  1  1     1.4624446868e-01
 2  1  2    -2.4595549523e-02
 2  1  3    -2.3407147968e-01
 2  2  1     5.9467902217e-02
 2  2  2     6.5437228631e-04
 2  2  3    -5.9467902217e-02
 2  3  1    -2.3407147968e-01
 2  3  2     2.4595549523e-02
 2  3  3     1.4624446868e-01
 3  1  1     5.9678866750e-02
 3  1  2     2.1102502831e-01
 3  1  3    -5.9678866750e-02
 3  2  1    -2.3407147968e-01
 3  2  2     2.4595549523e-02
 3  2  3     1.4624446868e-01
 3  3  1     2.8739396719e-02
 3  3  2    -3.6458505380e-01
 3  3  3    -8.2918080189e-02

   18
0.0000000000e+00 0.0000000000e+00 0.0000000000e+00
2.7319946255e+00 0.0000000000e+00 -2.7319946255e+00
     1      1      2
 1  1  1     5.9778150834e-02
 1  1  2     5.7526248112e-02
 1  1  3     1.9087973195e-02
 1  2  1     2.5494267285e-03
 1  2  2    -2.5494267285e-03
 1  2  3    -1.6485671123e-02
 1  3  1    -2.6220864784e-02
 1  3  2    -9.9425347931e-02
 1  3  3    -1.0722466655e-01
 2  1  1     2.5494267285e-03
 2  1  2    -2.5494267285e-03
 2  1  3    -1.6485671123e-02
 2  2  1    -5.7526248112e-02
 2  2  2    -5.9778150834e-02
 2  2  3     1.9087973195e-02
 2  3  1    -9.9425347931e-02
 2  3  2    -2.6220864784e-02
 2  3  3     1.0722466655e-01
 3  1  1    -2.6220864784e-02
 3  1  2    -9.9425347931e-02
 3  1  3    -1.0722466655e-01
 3  2  1    -9.9425347931e-02
 3  2  2    -2.6220864784e-02
 3  2  3     1.0722466655e-01
 3  3  1    -6.5840238467e-02
 3  3  2     6.5840238467e-02
 3  3  3     2.4875424057e-01

   19
0.0000000000e+00 0.0000000000e+00 0.0000000000e+00
5.4639892509e+00 2.7319946255e+00 2.7319946255e+00
     1      1      2
 1  1  1    -2.4875424057e-01
 1  1  2    -6.5840238467e-02
 1  1  3    -6.5840238467e-02
 1  2  1    -1.0722466655e-01
 1  2  2     2.6220864784e-02
 1  2  3    -9.9425347931e-02
 1  3  1    -1.0722466655e-01
 1  3  2    -9.9425347931e-02
 1  3  3     2.6220864784e-02
 2  1  1    -1.0722466655e-01
 2  1  2     2.6220864784e-02
 2  1  3    -9.9425347931e-02
 2  2  1    -1.9087973195e-02
 2  2  2     5.9778150834e-02
 2  2  3    -5.7526248112e-02
 2  3  1    -1.6485671123e-02
 2  3  2    -2.5494267285e-03
 2  3  3    -2.5494267285e-03
 3  1  1    -1.0722466655e-01
 3  1  2    -9.9425347931e-02
 3  1  3     2.6220864784e-02
 3  2  1    -1.6485671123e-02
 3  2  2    -2.5494267285e-03
 3  2  3    -2.5494267285e-03
 3  3  1    -1.9087973195e-02
 3  3  2    -5.7526248112e-02
 3  3  3     5.9778150834e-02

   20
0.0000000000e+00 0.0000000000e+00 0.0000000000e+00
5.4639892509e+00 0.0000000000e+00 0.0000000000e+00
     1      1      1
 1  1  1     6.6848684804e-02
 1  1  2     0.0000000000e+00
 1  1  3     0.0000000000e+00
 1  2  1     0.0000000000e+00
 1  2  2    -1.8250877809e-02
 1  2  3    -6.9103091131e-03
 1  3  1     0.0000000000e+00
 1  3  2    -6.9103091131e-03
 1  3  3    -1.8250877809e-02
 2  1  1     0.0000000000e+00
 2  1  2    -1.8250877809e-02
 2  1  3    -6.9103091131e-03
 2  2  1     3.4415595866e-02
 2  2  2     0.0000000000e+00
 2  2  3     0.0000000000e+00
 2  3  1    -2.5023091077e-03
 2  3  2     0.0000000000e+00
 2  3  3     0.0000000000e+00
 3  1  1     0.0000000000e+00
 3  1  2    -6.9103091131e-03
 3  1  3    -1.8250877809e-02
 3  2  1    -2.5023091077e-03
 3  2  2     0.0000000000e+00
 3  2  3     0.0000000000e+00
 3  3  1     3.4415595866e-02
 3  3  2     0.0000000000e+00
 3  3  3     0.0000000000e+00

   21
0.0000000000e+00 0.0000000000e+00 0.0000000000e+00
5.4639892509e+00 0.0000000000e+00 0.0000000000e+00
     1      1      2
 1  1  1    -2.4875424057e-01
 1  1  2     6.5840238467e-02
 1  1  3     6.5840238467e-02
 1  2  1     1.0722466655e-01
 1  2  2     2.6220864784e-02
 1  2  3    -9.9425347931e-02
 1  3  1     1.0722466655e-01
 1  3  2    -9.9425347931e-02
 1  3  3     2.6220864784e-02
 2  1  1     1.0722466655e-01
 2  1  2     2.6220864784e-02
 2  1  3    -9.9425347931e-02
 2  2  1    -1.9087973195e-02
 2  2  2    -5.9778150834e-02
 2  2  3     5.7526248112e-02
 2  3  1    -1.6485671123e-02
 2  3  2     2.5494267285e-03
 2  3  3     2.5494267285e-03
 3  1  1     1.0722466655e-01
 3  1  2    -9.9425347931e-02
 3  1  3     2.6220864784e-02
 3  2  1    -1.6485671123e-02
 3  2  2     2.5494267285e-03
 3  2  3     2.5494267285e-03
 3  3  1    -1.9087973195e-02
 3  3  2     5.7526248112e-02
 3  3  3    -5.9778150834e-02

   22
0.0000000000e+00 0.0000000000e+00 0.0000000000e+00
0.0000000000e+00 2.7319946255e+00 -2.7319946255e+00
     1      1      1
 1  1  1     6.5437228631e-04
 1  1  2     5.9467902217e-02
 1  1  3    -5.9467902217e-02
 1  2  1    -2.4595549523e-02
 1  2  2     1.4624446868e-01
 1  2  3    -2.3407147968e-01
 1  3  1     2.4595549523e-02
 1  3  2    -2.3407147968e-01
 1  3  3     1.4624446868e-01
 2  1  1    -2.4595549523e-02
 2  1  2     1.4624446868e-01
 2  1  3    -2.3407147968e-01
 2  2  1    -3.6458505380e-01
 2  2  2     8.2918080189e-02
 2  2  3    -2.8739396719e-02
 2  3  1     2.1102502831e-01
 2  3  2     5.9678866750e-02
 2  3  3    -5.9678866750e-02
 3  1  1     2.4595549523e-02
 3  1  2    -2.3407147968e-01
 3  1  3     1.4624446868e-01
 3  2  1     2.1102502831e-01
 3  2  2     5.9678866750e-02
 3  2  3    -5.9678866750e-02
 3  3  1    -3.6458505380e-01
 3  3  2     2.8739396719e-02
 3  3  3    -8.2918080189e-02

   23
0.0000000000e+00 0.0000000000e+00 0.0000000000e+00
0.0000000000e+00 2.7319946255e+00 -2.7319946255e+00
     1      1      2
 1  1  1    -5.9778150834e-02
 1  1  2    -5.7526248112e-02
 1  1  3     1.9087973195e-02
 1  2  1    -2.5494267285e-03
 1  2  2     2.5494267285e-03
 1  2  3    -1.6485671123e-02
 1  3  1    -2.6220864784e-02
 1  3  2    -9.9425347931e-02
 1  3  3     1.0722466655e-01
 2  1  1    -2.5494267285e-03
 2  1  2     2.5494267285e-03
 2  1  3    -1.6485671123e-02
 2  2  1     5.7526248112e-02
 2  2  2     5.9778150834e-02
 2  2  3     1.9087973195e-02
 2  3  1    -9.9425347931e-02
 2  3  2    -2.6220864784e-02
 2  3  3    -1.0722466655e-01
 3  1  1    -2.6220864784e-02
 3  1  2    -9.9425347931e-02
 3  1  3     1.0722466655e-01
 3  2  1    -9.9425347931e-02
 3  2  2    -2.6220864784e-02
 3  2  3    -1.0722466655e-01
 3  3  1     6.5840238467e-02
 3  3  2    -6.5840238467e-02
 3  3  3     2.4875424057e-01

   24
0.0000000000e+00 0.0000000000e+00 0.0000000000e+00
0.0000000000e+00 5.4639892509e+00 0.0000000000e+00
     1      1      1
 1  1  1     0.0000000000e+00
 1  1  2     3.4415595866e-02
 1  1  3     0.0000000000e+00
 1  2  1    -1.8250877809e-02
 1  2  2     0.0000000000e+00
 1  2  3    -6.9103091131e-03
 1  3  1     0.0000000000e+00
 1  3  2    -2.5023091077e-03
 1  3  3     0.0000000000e+00
 2  1  1    -1.8250877809e-02
 2  1  2     0.0000000000e+00
 2  1  3    -6.9103091131e-03
 2  2  1     0.0000000000e+00
 2  2  2     6.6848684804e-02
 2  2  3     0.0000000000e+00
 2  3  1    -6.9103091131e-03
 2  3  2     0.0000000000e+00
 2  3  3    -1.8250877809e-02
 3  1  1     0.0000000000e+00
 3  1  2    -2.5023091077e-03
 3  1  3     0.0000000000e+00
 3  2  1    -6.9103091131e-03
 3  2  2     0.0000000000e+00
 3  2  3    -1.8250877809e-02
 3  3  1     0.0000000000e+00
 3  3  2     3.4415595866e-02
 3  3  3     0.0000000000e+00

   25
0.0000000000e+00 0.0000000000e+00 0.0000000000e+00
0.0000000000e+00 5.4639892509e+00 0.0000000000e+00
     1      1      2
 1  1  1    -5.9778150834e-02
 1  1  2    -1.9087973195e-02
 1  1  3     5.7526248112e-02
 1  2  1     2.6220864784e-02
 1  2  2     1.0722466655e-01
 1  2  3    -9.9425347931e-02
 1  3  1     2.5494267285e-03
 1  3  2    -1.6485671123e-02
 1  3  3     2.5494267285e-03
 2  1  1     2.6220864784e-02
 2  1  2     1.0722466655e-01
 2  1  3    -9.9425347931e-02
 2  2  1     6.5840238467e-02
 2  2  2    -2.4875424057e-01
 2  2  3     6.5840238467e-02
 2  3  1    -9.9425347931e-02
 2  3  2     1.0722466655e-01
 2  3  3     2.6220864784e-02
 3  1  1     2.5494267285e-03
 3  1  2    -1.6485671123e-02
 3  1  3     2.5494267285e-03
 3  2  1    -9.9425347931e-02
 3  2  2     1.0722466655e-01
 3  2  3     2.6220864784e-02
 3  3  1     5.7526248112e-02
 3  3  2    -1.9087973195e-02
 3  3  3    -5.9778150834e-02

   26
0.0000000000e+00 0.0000000000e+00 0.0000000000e+00
0.0000000000e+00 0.0000000000e+00 -5.4639892509e+00
     1      1      1
 1  1  1     0.0000000000e+00
 1  1  2     0.0000000000e+00
 1  1  3    -3.4415595866e-02
 1  2  1     0.0000000000e+00
 1  2  2     0.0000000000e+00
 1  2  3    -2.5023091077e-03
 1  3  1     1.8250877809e-02
 1  3  2    -6.9103091131e-03
 1  3  3     0.0000000000e+00
 2  1  1     0.0000000000e+00
 2  1  2     0.0000000000e+00
 2  1  3    -2.5023091077e-03
 2  2  1     0.0000000000e+00
 2  2  2     0.0000000000e+00
 2  2  3    -3.4415595866e-02
 2  3  1    -6.9103091131e-03
 2  3  2     1.8250877809e-02
 2  3  3     0.0000000000e+00
 3  1  1     1.8250877809e-02
 3  1  2    -6.9103091131e-03
 3  1  3     0.0000000000e+00
 3  2  1    -6.9103091131e-03
 3  2  2     1.8250877809e-02
 3  2  3     0.0000000000e+00
 3  3  1     0.0000000000e+00
 3  3  2     0.0000000000e+00
 3  3  3    -6.6848684804e-02

   27
0.0000000000e+00 0.0000000000e+00 0.0000000000e+00
-2.7319946255e+00 -2.7319946255e+00 0.0000000000e+00
     1      1      1
 1  1  1    -8.2918080189e-02
 1  1  2    -2.8739396719e-02
 1  1  3     3.6458505380e-01
 1  2  1     5.9678866750e-02
 1  2  2     5.9678866750e-02
 1  2  3     2.1102502831e-01
 1  3  1    -1.4624446868e-01
 1  3  2    -2.3407147968e-01
 1  3  3     2.4595549523e-02
 2  1  1     5.9678866750e-02
 2  1  2     5.9678866750e-02
 2  1  3     2.1102502831e-01
 2  2  1    -2.8739396719e-02
 2  2  2    -8.2918080189e-02
 2  2  3     3.6458505380e-01
 2  3  1    -2.3407147968e-01
 2  3  2    -1.4624446868e-01
 2  3  3     2.4595549523e-02
 3  1  1    -1.4624446868e-01
 3  1  2    -2.3407147968e-01
 3  1  3     2.4595549523e-02
 3  2  1    -2.3407147968e-01
 3  2  2    -1.4624446868e-01
 3  2  3     2.4595549523e-02
 3  3  1    -5.9467902217e-02
 3  3  2    -5.9467902217e-02
 3  3  3    -6.5437228631e-04

   28
0.0000000000e+00 0.0000000000e+00 0.0000000000e+00
-2.7319946255e+00 0.0000000000e+00 2.7319946255e+00
     1      1      1
 1  1  1    -8.2918080189e-02
 1  1  2    -3.6458505380e-01
 1  1  3     2.8739396719e-02
 1  2  1     1.4624446868e-01
 1  2  2     2.4595549523e-02
 1  2  3    -2.3407147968e-01
 1  3  1    -5.9678866750e-02
 1  3  2     2.1102502831e-01
 1  3  3     5.9678866750e-02
 2  1  1     1.4624446868e-01
 2  1  2     2.4595549523e-02
 2  1  3    -2.3407147968e-01
 2  2  1    -5.9467902217e-02
 2  2  2     6.5437228631e-04
 2  2  3     5.9467902217e-02
 2  3  1    -2.3407147968e-01
 2  3  2    -2.4595549523e-02
 2  3  3     1.4624446868e-01
 3  1  1    -5.9678866750e-02
 3  1  2     2.1102502831e-01
 3  1  3     5.9678866750e-02
 3  2  1    -2.3407147968e-01
 3  2  2    -2.4595549523e-02
 3  2  3     1.4624446868e-01
 3  3  1    -2.8739396719e-02
 3  3  2    -3.6458505380e-01
 3  3  3     8.2918080189e-02

   29
0.0000000000e+00 0.0000000000e+00 0.0000000000e+00
-2.7319946255e+00 0.0000000000e+00 2.7319946255e+00
     1      1      2
 1  1  1     2.4875424057e-01
 1  1  2     6.5840238467e-02
 1  1  3    -6.5840238467e-02
 1  2  1     1.0722466655e-01
 1  2  2    -2.6220864784e-02
 1  2  3    -9.9425347931e-02
 1  3  1    -1.0722466655e-01
 1  3  2    -9.9425347931e-02
 1  3  3    -2.6220864784e-02
 2  1  1     1.0722466655e-01
 2  1  2    -2.6220864784e-02
 2  1  3    -9.9425347931e-02
 2  2  1     1.9087973195e-02
 2  2  2    -5.9778150834e-02
 2  2  3    -5.7526248112e-02
 2  3  1    -1.6485671123e-02
 2  3  2    -2.5494267285e-03
 2  3  3     2.5494267285e-03
 3  1  1    -1.0722466655e-01
 3  1  2    -9.9425347931e-02
 3  1  3    -2.6220864784e-02
 3  2  1    -1.6485671123e-02
 3  2  2    -2.5494267285e-03
 3  2  3     2.5494267285e-03
 3  3  1     1.9087973195e-02
 3  3  2     5.7526248112e-02
 3  3  3     5.9778150834e-02

   30
0.0000000000e+00 0.0000000000e+00 0.0000000000e+00
0.0000000000e+00 -2.7319946255e+00 2.7319946255e+00
     1      1      1
 1  1  1     6.5437228631e-04
 1  1  2    -5.9467902217e-02
 1  1  3     5.9467902217e-02
 1  2  1     2.4595549523e-02
 1  2  2     1.4624446868e-01
 1  2  3    -2.3407147968e-01
 1  3  1    -2.4595549523e-02
 1  3  2    -2.3407147968e-01
 1  3  3     1.4624446868e-01
 2  1  1     2.4595549523e-02
 2  1  2     1.4624446868e-01
 2  1  3    -2.3407147968e-01
 2  2  1    -3.6458505380e-01
 2  2  2    -8.2918080189e-02
 2  2  3     2.8739396719e-02
 2  3  1     2.1102502831e-01
 2  3  2    -5.9678866750e-02
 2  3  3     5.9678866750e-02
 3  1  1    -2.4595549523e-02
 3  1  2    -2.3407147968e-01
 3  1  3     1.4624446868e-01
 3  2  1     2.1102502831e-01
 3  2  2    -5.9678866750e-02
 3  2  3     5.9678866750e-02
 3  3  1    -3.6458505380e-01
 3  3  2    -2.8739396719e-02
 3  3  3     8.2918080189e-02

   31
0.0000000000e+00 0.0000000000e+00 0.0000000000e+00
0.0000000000e+00 -2.7319946255e+00 2.7319946255e+00
     1      1      2
 1  1  1    -5.9778150834e-02
 1  1  2     1.9087973195e-02
 1  1  3    -5.7526248112e-02
 1  2  1    -2.6220864784e-02
 1  2  2     1.0722466655e-01
 1  2  3    -9.9425347931e-02
 1  3  1    -2.5494267285e-03
 1  3  2    -1.6485671123e-02
 1  3  3     2.5494267285e-03
 2  1  1    -2.6220864784e-02
 2  1  2     1.0722466655e-01
 2  1  3    -9.9425347931e-02
 2  2  1     6.5840238467e-02
 2  2  2     2.4875424057e-01
 2  2  3    -6.5840238467e-02
 2  3  1    -9.9425347931e-02
 2  3  2    -1.0722466655e-01
 2  3  3    -2.6220864784e-02
 3  1  1    -2.5494267285e-03
 3  1  2    -1.6485671123e-02
 3  1  3     2.5494267285e-03
 3  2  1    -9.9425347931e-02
 3  2  2    -1.0722466655e-01
 3  2  3    -2.6220864784e-02
 3  3  1     5.7526248112e-02
 3  3  2     1.9087973195e-02
 3  3  3     5.9778150834e-02

   32
0.0000000000e+00 0.0000000000e+00 0.0000000000e+00
0.0000000000e+00 0.0000000000e+00 5.4639892509e+00
     1      1      1
 1  1  1     0.0000000000e+00
 1  1  2     0.0000000000e+00
 1  1  3     3.4415595866e-02
 1  2  1     0.0000000000e+00
 1  2  2     0.0000000000e+00
 1  2  3    -2.5023091077e-03
 1  3  1    -1.8250877809e-02
 1  3  2    -6.9103091131e-03
 1  3  3     0.0000000000e+00
 2  1  1     0.0000000000e+00
 2  1  2     0.0000000000e+00
 2  1  3    -2.5023091077e-03
 2  2  1     0.0000000000e+00
 2  2  2     0.0000000000e+00
 2  2  3     3.4415595866e-02
 2  3  1    -6.9103091131e-03
 2  3  2    -1.8250877809e-02
 2  3  3     0.0000000000e+00
 3  1  1    -1.8250877809e-02
 3  1  2    -6.9103091131e-03
 3  1  3     0.0000000000e+00
 3  2  1    -6.9103091131e-03
 3  2  2    -1.8250877809e-02