  266

    1
0.0000000000e+00 0.0000000000e+00 0.0000000000e+00
0.0000000000e+00 0.0000000000e+00 0.0000000000e+00
     1      1      1
 1  1  1     0.0000000000e+00
 1  1  2     0.0000000000e+00
 1  1  3     0.0000000000e+00
 1  2  1     0.0000000000e+00
 1  2  2     0.0000000000e+00
 1  2  3    -3.1604693649e+01
 1  3  1     0.0000000000e+00
 1  3  2    -3.1604693649e+01
 1  3  3     0.0000000000e+00
 2  1  1     0.0000000000e+00
 2  1  2     0.0000000000e+00
 2  1  3    -3.1604693649e+01
 2  2  1     0.0000000000e+00
 2  2  2     0.0000000000e+00
 2  2  3     0.0000000000e+00
 2  3  1    -3.1604693649e+01
 2  3  2     0.0000000000e+00
 2  3  3     0.0000000000e+00
 3  1  1     0.0000000000e+00
 3  1  2    -3.1604693649e+01
 3  1  3     0.0000000000e+00
 3  2  1    -3.1604693649e+01
 3  2  2     0.0000000000e+00
 3  2  3     0.0000000000e+00
 3  3  1     0.0000000000e+00
 3  3  2     0.0000000000e+00
 3  3  3     0.0000000000e+00

    2
0.0000000000e+00 0.0000000000e+00 0.0000000000e+00
0.0000000000e+00 0.0000000000e+00 0.0000000000e+00
     1      1      2
 1  1  1     4.3612339076e+00
 1  1  2     5.2667420333e+00
 1  1  3     5.2667420333e+00
 1  2  1     6.3874058816e+00
 1  2  2     6.3874058816e+00
 1  2  3     8.0814095242e+00
 1  3  1     6.3874058816e+00
 1  3  2     8.0814095242e+00
 1  3  3     6.3874058816e+00
 2  1  1     6.3874058816e+00
 2  1  2     6.3874058816e+00
 2  1  3     8.0814095242e+00
 2  2  1     5.2667420333e+00
 2  2  2     4.3612339076e+00
 2  2  3     5.2667420333e+00
 2  3  1     8.0814095242e+00
 2  3  2     6.3874058816e+00
 2  3  3     6.3874058816e+00
 3  1  1     6.3874058816e+00
 3  1  2     8.0814095242e+00
 3  1  3     6.3874058816e+00
 3  2  1     8.0814095242e+00
 3  2  2     6.3874058816e+00
 3  2  3     6.3874058816e+00
 3  3  1     5.2667420333e+00
 3  3  2     5.2667420333e+00
 3  3  3     4.3612339076e+00

    3
0.0000000000e+00 0.0000000000e+00 0.0000000000e+00
0.0000000000e+00 2.7319946255e+00 2.7319946255e+00
     1      1      1
 1  1  1     1.2408626981e-03
 1  1  2     5.6241755275e-02
 1  1  3     5.6241755275e-02
 1  2  1    -2.3194765674e-02
 1  2  2    -8.4785639597e-02
 1  2  3    -1.8730985589e-01
 1  3  1    -2.3194765674e-02
 1  3  2    -1.8730985589e-01
 1  3  3    -8.4785639597e-02
 2  1  1    -2.3194765674e-02
 2  1  2    -8.4785639597e-02
 2  1  3    -1.8730985589e-01
 2  2  1     3.5123913060e-01
 2  2  2     8.1632528558e-02
 2  2  3     3.1610087987e-02
 2  3  1     1.9438310364e-01
 2  3  2    -5.9213711711e-02
 2  3  3    -5.9213711711e-02
 3  1  1    -2.3194765674e-02
 3  1  2    -1.8730985589e-01
 3  1  3    -8.4785639597e-02
 3  2  1     1.9438310364e-01
 3  2  2    -5.9213711711e-02
 3  2  3    -5.9213711711e-02
 3  3  1     3.5123913060e-01
 3  3  2     3.1610087987e-02
 3  3  3     8.1632528558e-02

    4
0.0000000000e+00 0.0000000000e+00 0.0000000000e+00
0.0000000000e+00 2.7319946255e+00 2.7319946255e+00
     1      1      2
 1  1  1     4.3612339076e+00
 1  1  2    -5.2667420333e+00
 1  1  3    -5.2667420333e+00
 1  2  1    -6.3874058816e+00
 1  2  2     6.3874058816e+00
 1  2  3     8.0814095242e+00
 1  3  1    -6.3874058816e+00
 1  3  2     8.0814095242e+00
 1  3  3     6.3874058816e+00
 2  1  1    -6.3874058816e+00
 2  1  2     6.3874058816e+00
 2  1  3     8.0814095242e+00
 2  2  1     5.2667420333e+00
 2  2  2    -4.3612339076e+00
 2  2  3    -5.2667420333e+00
 2  3  1     8.0814095242e+00
 2  3  2    -6.3874058816e+00
 2  3  3    -6.3874058816e+00
 3  1  1    -6.3874058816e+00
 3  1  2     8.0814095242e+00
 3  1  3     6.3874058816e+00
 3  2  1     8.0814095242e+00
 3  2  2    -6.3874058816e+00
 3  2  3    -6.3874058816e+00
 3  3  1     5.2667420333e+00
 3  3  2    -5.2667420333e+00
 3  3  3    -4.3612339076e+00

    5
0.0000000000e+00 0.0000000000e+00 0.0000000000e+00
0.0000000000e+00 -2.7319946255e+00 -2.7319946255e+00
     1      1      1
 1  1  1     1.2408626981e-03
 1  1  2    -5.6241755275e-02
 1  1  3    -5.6241755275e-02
 1  2  1     2.3194765674e-02
 1  2  2    -8.4785639597e-02
 1  2  3    -1.8730985589e-01
 1  3  1     2.3194765674e-02
 1  3  2    -1.8730985589e-01
 1  3  3    -8.4785639597e-02
 2  1  1     2.3194765674e-02
 2  1  2    -8.4785639597e-02
 2  1  3    -1.8730985589e-01
 2  2  1     3.5123913060e-01
 2  2  2    -8.1632528558e-02
 2  2  3    -3.1610087987e-02
 2  3  1     1.9438310364e-01
 2  3  2     5.9213711711e-02
 2  3  3     5.9213711711e-02
 3  1  1     2.3194765674e-02
 3  1  2    -1.8730985589e-01
 3  1  3    -8.4785639597e-02
 3  2  1     1.9438310364e-01
 3  2  2     5.9213711711e-02
 3  2  3     5.9213711711e-02
 3  3  1     3.5123913060e-01
 3  3  2    -3.1610087987e-02
 3  3  3    -8.1632528558e-02

    6
0.0000000000e+00 0.0000000000e+00 0.0000000000e+00
2.7319946255e+00 0.0000000000e+00 2.7319946255e+00
     1      1      1
 1  1  1     8.1632528558e-02
 1  1  2     3.5123913060e-01
 1  1  3     3.1610087987e-02
 1  2  1    -8.4785639597e-02
 1  2  2    -2.3194765674e-02
 1  2  3    -1.8730985589e-01
 1  3  1    -5.9213711711e-02
 1  3  2     1.9438310364e-01
 1  3  3    -5.9213711711e-02
 2  1  1    -8.4785639597e-02
 2  1  2    -2.3194765674e-02
 2  1  3    -1.8730985589e-01
 2  2  1     5.6241755275e-02
 2  2  2     1.2408626981e-03
 2  2  3     5.6241755275e-02
 2  3  1    -1.8730985589e-01
 2  3  2    -2.3194765674e-02
 2  3  3    -8.4785639597e-02
 3  1  1    -5.9213711711e-02
 3  1  2     1.9438310364e-01
 3  1  3    -5.9213711711e-02
 3  2  1    -1.8730985589e-01
 3  2  2    -2.3194765674e-02
 3  2  3    -8.4785639597e-02
 3  3  1     3.1610087987e-02
 3  3  2     3.5123913060e-01
 3  3  3     8.1632528558e-02

    7
0.0000000000e+00 0.0000000000e+00 0.0000000000e+00
2.7319946255e+00 0.0000000000e+00 2.7319946255e+00
     1      1      2
 1  1  1    -4.3612339076e+00
 1  1  2     5.2667420333e+00
 1  1  3    -5.2667420333e+00
 1  2  1     6.3874058816e+00
 1  2  2    -6.3874058816e+00
 1  2  3     8.0814095242e+00
 1  3  1    -6.3874058816e+00
 1  3  2     8.0814095242e+00
 1  3  3    -6.3874058816e+00
 2  1  1     6.3874058816e+00
 2  1  2    -6.3874058816e+00
 2  1  3     8.0814095242e+00
 2  2  1    -5.2667420333e+00
 2  2  2     4.3612339076e+00
 2  2  3    -5.2667420333e+00
 2  3  1     8.0814095242e+00
 2  3  2    -6.3874058816e+00
 2  3  3     6.3874058816e+00
 3  1  1    -6.3874058816e+00
 3  1  2     8.0814095242e+00
 3  1  3    -6.3874058816e+00
 3  2  1     8.0814095242e+00
 3  2  2    -6.3874058816e+00
 3  2  3     6.3874058816e+00
 3  3  1    -5.2667420333e+00
 3  3  2     5.2667420333e+00
 3  3  3    -4.3612339076e+00

    8
0.0000000000e+00 0.0000000000e+00 0.0000000000e+00
2.7319946255e+00 -2.7319946255e+00 0.0000000000e+00
     1      1      1
 1  1  1     8.1632528558e-02
 1  1  2    -3.1610087987e-02
 1  1  3    -3.5123913060e-01
 1  2  1     5.9213711711e-02
 1  2  2    -5.9213711711e-02
 1  2  3     1.9438310364e-01
 1  3  1     8.4785639597e-02
 1  3  2    -1.8730985589e-01
 1  3  3    -2.3194765674e-02
 2  1  1     5.9213711711e-02
 2  1  2    -5.9213711711e-02
 2  1  3     1.9438310364e-01
 2  2  1     3.1610087987e-02
 2  2  2    -8.1632528558e-02
 2  2  3    -3.5123913060e-01
 2  3  1    -1.8730985589e-01
 2  3  2     8.4785639597e-02
 2  3  3     2.3194765674e-02
 3  1  1     8.4785639597e-02
 3  1  2    -1.8730985589e-01
 3  1  3    -2.3194765674e-02
 3  2  1    -1.8730985589e-01
 3  2  2     8.4785639597e-02
 3  2  3     2.3194765674e-02
 3  3  1     5.6241755275e-02
 3  3  2    -5.6241755275e-02
 3  3  3    -1.2408626981e-03

    9
0.0000000000e+00 0.0000000000e+00 0.0000000000e+00
-2.7319946255e+00 0.0000000000e+00 -2.7319946255e+00
     1      1      1
 1  1  1    -8.1632528558e-02
 1  1  2     3.5123913060e-01
 1  1  3    -3.1610087987e-02
 1  2  1    -8.4785639597e-02
 1  2  2     2.3194765674e-02
 1  2  3    -1.8730985589e-01
 1  3  1     5.9213711711e-02
 1  3  2     1.9438310364e-01
 1  3  3     5.9213711711e-02
 2  1  1    -8.4785639597e-02
 2  1  2     2.3194765674e-02
 2  1  3    -1.8730985589e-01
 2  2  1    -5.6241755275e-02
 2  2  2     1.2408626981e-03
 2  2  3    -5.6241755275e-02
 2  3  1    -1.8730985589e-01
 2  3  2     2.3194765674e-02
 2  3  3    -8.4785639597e-02
 3  1  1     5.9213711711e-02
 3  1  2     1.9438310364e-01
 3  1  3     5.9213711711e-02
 3  2  1    -1.8730985589e-01
 3  2  2     2.3194765674e-02
 3  2  3    -8.4785639597e-02
 3  3  1    -3.1610087987e-02
 3  3  2     3.5123913060e-01
 3  3  3    -8.1632528558e-02

   10
0.0000000000e+00 0.0000000000e+00 0.0000000000e+00
-2.7319946255e+00 2.7319946255e+00 0.0000000000e+00
     1      1      1
 1  1  1    -8.1632528558e-02
 1  1  2     3.1610087987e-02
 1  1  3    -3.5123913060e-01
 1  2  1    -5.9213711711e-02
 1  2  2     5.9213711711e-02
 1  2  3     1.9438310364e-01
 1  3  1     8.4785639597e-02
 1  3  2    -1.8730985589e-01
 1  3  3     2.3194765674e-02
 2  1  1    -5.9213711711e-02
 2  1  2     5.9213711711e-02
 2  1  3     1.9438310364e-01
 2  2  1    -3.1610087987e-02
 2  2  2     8.1632528558e-02
 2  2  3    -3.5123913060e-01
 2  3  1    -1.8730985589e-01
 2  3  2     8.4785639597e-02
 2  3  3    -2.3194765674e-02
 3  1  1     8.4785639597e-02
 3  1  2    -1.8730985589e-01
 3  1  3     2.3194765674e-02
 3  2  1    -1.8730985589e-01
 3  2  2     8.4785639597e-02
 3  2  3    -2.3194765674e-02
 3  3  1    -5.6241755275e-02
 3  3  2     5.6241755275e-02
 3  3  3    -1.2408626981e-03

   11
0.0000000000e+00 0.0000000000e+00 0.0000000000e+00
2.7319946255e+00 2.7319946255e+00 0.0000000000e+00
     1      1      1
 1  1  1     8.1632528558e-02
 1  1  2     3.1610087987e-02
 1  1  3     3.5123913060e-01
 1  2  1    -5.9213711711e-02
 1  2  2    -5.9213711711e-02
 1  2  3     1.9438310364e-01
 1  3  1    -8.4785639597e-02
 1  3  2    -1.8730985589e-01
 1  3  3    -2.3194765674e-02
 2  1  1    -5.9213711711e-02
 2  1  2    -5.9213711711e-02
 2  1  3     1.9438310364e-01
 2  2  1     3.1610087987e-02
 2  2  2     8.1632528558e-02
 2  2  3     3.5123913060e-01
 2  3  1    -1.8730985589e-01
 2  3  2    -8.4785639597e-02
 2  3  3    -2.3194765674e-02
 3  1  1    -8.4785639597e-02
 3  1  2    -1.8730985589e-01
 3  1  3    -2.3194765674e-02
 3  2  1    -1.8730985589e-01
 3  2  2    -8.4785639597e-02
 3  2  3    -2.3194765674e-02
 3  3  1     5.6241755275e-02
 3  3  2     5.6241755275e-02
 3  3  3     1.2408626981e-03

   12
0.0000000000e+00 0.0000000000e+00 0.0000000000e+00
2.7319946255e+00 2.7319946255e+00 0.0000000000e+00
     1      1      2
 1  1  1    -4.3612339076e+00
 1  1  2    -5.2667420333e+00
 1  1  3     5.2667420333e+00
 1  2  1    -6.3874058816e+00
 1  2  2    -6.3874058816e+00
 1  2  3     8.0814095242e+00
 1  3  1     6.3874058816e+00
 1  3  2     8.0814095242e+00
 1  3  3    -6.3874058816e+00
 2  1  1    -6.3874058816e+00
 2  1  2    -6.3874058816e+00
 2  1  3     8.0814095242e+00
 2  2  1    -5.2667420333e+00
 2  2  2    -4.3612339076e+00
 2  2  3     5.2667420333e+00
 2  3  1     8.0814095242e+00
 2  3  2     6.3874058816e+00
 2  3  3    -6.3874058816e+00
 3  1  1     6.3874058816e+00
 3  1  2     8.0814095242e+00
 3  1  3    -6.3874058816e+00
 3  2  1     8.0814095242e+00
 3  2  2     6.3874058816e+00
 3  2  3    -6.3874058816e+00
 3  3  1    -5.2667420333e+00
 3  3  2    -5.2667420333e+00
 3  3  3     4.3612339076e+00

   13
0.0000000000e+00 0.0000000000e+00 0.0000000000e+00
2.7319946255e+00 0.0000000000e+00 -2.7319946255e+00
     1      1      1
 1  1  1     8.1632528558e-02
 1  1  2    -3.5123913060e-01
 1  1  3    -3.1610087987e-02
 1  2  1     8.4785639597e-02
 1  2  2    -2.3194765674e-02
 1  2  3    -1.8730985589e-01
 1  3  1     5.9213711711e-02
 1  3  2     1.9438310364e-01
 1  3  3    -5.9213711711e-02
 2  1  1     8.4785639597e-02
 2  1  2    -2.3194765674e-02
 2  1  3    -1.8730985589e-01
 2  2  1     5.6241755275e-02
 2  2  2    -1.2408626981e-03
 2  2  3    -5.6241755275e-02
 2  3  1    -1.8730985589e-01
 2  3  2     2.3194765674e-02
 2  3  3     8.4785639597e-02
 3  1  1     5.9213711711e-02
 3  1  2     1.9438310364e-01
 3  1  3    -5.9213711711e-02
 3  2  1    -1.8730985589e-01
 3  2  2     2.3194765674e-02
 3  2  3     8.4785639597e-02
 3  3  1     3.1610087987e-02
 3  3  2    -3.5123913060e-01
 3  3  3    -8.1632528558e-02

   14
0.0000000000e+00 0.0000000000e+00 0.0000000000e+00
0.0000000000e+00 2.7319946255e+00 -2.7319946255e+00
     1      1      1
 1  1  1    -1.2408626981e-03
 1  1  2     5.6241755275e-02
 1  1  3    -5.6241755275e-02
 1  2  1    -2.3194765674e-02
 1  2  2     8.4785639597e-02
 1  2  3    -1.8730985589e-01
 1  3  1     2.3194765674e-02
 1  3  2    -1.8730985589e-01
 1  3  3     8.4785639597e-02
 2  1  1    -2.3194765674e-02
 2  1  2     8.4785639597e-02
 2  1  3    -1.8730985589e-01
 2  2  1    -3.5123913060e-01
 2  2  2     8.1632528558e-02
 2  2  3    -3.1610087987e-02
 2  3  1     1.9438310364e-01
 2  3  2     5.9213711711e-02
 2  3  3    -5.9213711711e-02
 3  1  1     2.3194765674e-02
 3  1  2    -1.8730985589e-01
 3  1  3     8.4785639597e-02
 3  2  1     1.9438310364e-01
 3  2  2     5.9213711711e-02
 3  2  3    -5.9213711711e-02
 3  3  1    -3.5123913060e-01
 3  3  2     3.1610087987e-02
 3  3  3    -8.1632528558e-02

   15
0.0000000000e+00 0.0000000000e+00 0.0000000000e+00
-2.7319946255e+00 -2.7319946255e+00 0.0000000000e+00
     1      1      1
 1  1  1    -8.1632528558e-02
 1  1  2    -3.1610087987e-02
 1  1  3     3.5123913060e-01
 1  2  1     5.9213711711e-02
 1  2  2     5.9213711711e-02
 1  2  3     1.9438310364e-01
 1  3  1    -8.4785639597e-02
 1  3  2    -1.8730985589e-01
 1  3  3     2.3194765674e-02
 2  1  1     5.9213711711e-02
 2  1  2     5.9213711711e-02
 2  1  3     1.9438310364e-01
 2  2  1    -3.1610087987e-02
 2  2  2    -8.1632528558e-02
 2  2  3     3.5123913060e-01
 2  3  1    -1.8730985589e-01
 2  3  2    -8.4785639597e-02
 2  3  3     2.3194765674e-02
 3  1  1    -8.4785639597e-02
 3  1  2    -1.8730985589e-01
 3  1  3     2.3194765674e-02
 3  2  1    -1.8730985589e-01
 3  2  2    -8.4785639597e-02
 3  2  3     2.3194765674e-02
 3  3  1    -5.6241755275e-02
 3  3  2    -5.6241755275e-02
 3  3  3     1.2408626981e-03

   16
0.0000000000e+00 0.0000000000e+00 0.0000000000e+00
-2.7319946255e+00 0.0000000000e+00 2.7319946255e+00
     1      1      1
 1  1  1    -8.1632528558e-02
 1  1  2    -3.5123913060e-01
 1  1  3     3.1610087987e-02
 1  2  1     8.4785639597e-02
 1  2  2     2.3194765674e-02
 1  2  3    -1.8730985589e-01
 1  3  1    -5.9213711711e-02
 1  3  2     1.9438310364e-01
 1  3  3     5.9213711711e-02
 2  1  1     8.4785639597e-02
 2  1  2     2.3194765674e-02
 2  1  3    -1.8730985589e-01
 2  2  1    -5.6241755275e-02
 2  2  2    -1.2408626981e-03
 2  2  3     5.6241755275e-02
 2  3  1    -1.8730985589e-01
 2  3  2    -2.3194765674e-02
 2  3  3     8.4785639597e-02
 3  1  1    -5.9213711711e-02
 3  1  2     1.9438310364e-01
 3  1  3     5.9213711711e-02
 3  2  1    -1.8730985589e-01
 3  2  2    -2.3194765674e-02
 3  2  3     8.4785639597e-02
 3  3  1    -3.1610087987e-02
 3  3  2    -3.5123913060e-01
 3  3  3     8.1632528558e-02

   17
0.0000000000e+00 0.0000000000e+00 0.0000000000e+00
0.0000000000e+00 -2.7319946255e+00 2.7319946255e+00
     1      1      1
 1  1  1    -1.2408626981e-03
 1  1  2    -5.6241755275e-02
 1  1  3     5.6241755275e-02
 1  2  1     2.3194765674e-02
 1  2  2     8.4785639597e-02
 1  2  3    -1.8730985589e-01
 1  3  1    -2.3194765674e-02
 1  3  2    -1.8730985589e-01
 1  3  3     8.4785639597e-02
 2  1  1     2.3194765674e-02
 2  1  2     8.4785639597e-02
 2  1  3    -1.8730985589e-01
 2  2  1    -3.5123913060e-01
 2  2  2    -8.1632528558e-02
 2  2  3     3.1610087987e-02
 2  3  1     1.9438310364e-01
 2  3  2    -5.9213711711e-02
 2  3  3     5.9213711711e-02
 3  1  1    -2.3194765674e-02
 3  1  2    -1.8730985589e-01
 3  1  3     8.4785639597e-02
 3  2  1     1.9438310364e-01
 3  2  2    -5.9213711711e-02
 3  2  3     5.9213711711e-02
 3  3  1    -3.5123913060e-01
 3  3  2    -3.1610087987e-02
 3  3  3     8.1632528558e-02

   18
0.0000000000e+00 0.0000000000e+00 0.0000000000e+00
0.0000000000e+00 0.0000000000e+00 0.0000000000e+00
     1      2      1
 1  1  1     4.3612339076e+00
 1  1  2     6.3874058816e+00
 1  1  3     6.3874058816e+00
 1  2  1     5.2667420333e+00
 1  2  2     6.3874058816e+00
 1  2  3     8.0814095242e+00
 1  3  1     5.2667420333e+00
 1  3  2     8.0814095242e+00
 1  3  3     6.3874058816e+00
 2  1  1     6.3874058816e+00
 2  1  2     5.2667420333e+00
 2  1  3     8.0814095242e+00
 2  2  1     6.3874058816e+00
 2  2  2     4.3612339076e+00
 2  2  3     6.3874058816e+00
 2  3  1     8.0814095242e+00
 2  3  2     5.2667420333e+00
 2  3  3     6.3874058816e+00
 3  1  1     6.3874058816e+00
 3  1  2     8.0814095242e+00
 3  1  3     5.2667420333e+00
 3  2  1     8.0814095242e+00
 3  2  2     6.3874058816e+00
 3  2  3     5.2667420333e+00
 3  3  1     6.3874058816e+00
 3  3  2     6.3874058816e+00
 3  3  3     4.3612339076e+00

   19
0.0000000000e+00 0.0000000000e+00 0.0000000000e+00
0.0000000000e+00 0.0000000000e+00 0.0000000000e+00
     1      2      2
 1  1  1    -4.3612339076e+00
 1  1  2    -6.3874058816e+00
 1  1  3    -6.3874058816e+00
 1  2  1    -6.3874058816e+00
 1  2  2    -5.2667420333e+00
 1  2  3    -8.0814095242e+00
 1  3  1    -6.3874058816e+00
 1  3  2    -8.0814095242e+00
 1  3  3    -5.2667420333e+00
 2  1  1    -5.2667420333e+00
 2  1  2    -6.3874058816e+00
 2  1  3    -8.0814095242e+00
 2  2  1    -6.3874058816e+00
 2  2  2    -4.3612339076e+00
 2  2  3    -6.3874058816e+00
 2  3  1    -8.0814095242e+00
 2  3  2    -6.3874058816e+00
 2  3  3    -5.2667420333e+00
 3  1  1    -5.2667420333e+00
 3  1  2    -8.0814095242e+00
 3  1  3    -6.3874058816e+00
 3  2  1    -8.0814095242e+00
 3  2  2    -5.2667420333e+00
 3  2  3    -6.3874058816e+00
 3  3  1    -6.3874058816e+00
 3  3  2    -6.3874058816e+00
 3  3  3    -4.3612339076e+00

   20
0.0000000000e+00 0.0000000000e+00 0.0000000000e+00
0.0000000000e+00 2.7319946255e+00 2.7319946255e+00
     1      2      2
 1  1  1    -3.6555546953e-03
 1  1  2    -2.4880834598e-01
 1  1  3    -2.4880834598e-01
 1  2  1     2.4880834598e-01
 1  2  2    -3.9794445054e-01
 1  2  3    -6.8598782611e-01
 1  3  1     2.4880834598e-01
 1  3  2    -6.8598782611e-01
 1  3  3    -3.9794445054e-01
 2  1  1     0.0000000000e+00
 2  1  2     3.3354318587e-01
 2  1  3    -9.3496273112e-02
 2  2  1     3.3354318587e-01
 2  2  2     0.0000000000e+00
 2  2  3    -1.4036786583e-01
 2  3  1    -9.3496273112e-02
 2  3  2     1.4036786583e-01
 2  3  3     0.0000000000e+00
 3  1  1     0.0000000000e+00
 3  1  2    -9.3496273112e-02
 3  1  3     3.3354318587e-01
 3  2  1    -9.3496273112e-02
 3  2  2     0.0000000000e+00
 3  2  3     1.4036786583e-01
 3  3  1     3.3354318587e-01
 3  3  2    -1.4036786583e-01
 3  3  3     0.0000000000e+00

   21
0.0000000000e+00 0.0000000000e+00 0.0000000000e+00
0.0000000000e+00 -2.7319946255e+00 -2.7319946255e+00
     1      2      1
 1  1  1     3.6555546953e-03
 1  1  2     2.4880834598e-01
 1  1  3     2.4880834598e-01
 1  2  1     0.0000000000e+00
 1  2  2    -3.3354318587e-01
 1  2  3     9.3496273112e-02
 1  3  1     0.0000000000e+00
 1  3  2     9.3496273112e-02
 1  3  3    -3.3354318587e-01
 2  1  1    -2.4880834598e-01
 2  1  2     3.9794445054e-01
 2  1  3     6.8598782611e-01
 2  2  1    -3.3354318587e-01
 2  2  2     0.0000000000e+00
 2  2  3     1.4036786583e-01
 2  3  1     9.3496273112e-02
 2  3  2     0.0000000000e+00
 2  3  3    -1.4036786583e-01
 3  1  1    -2.4880834598e-01
 3  1  2     6.8598782611e-01
 3  1  3     3.9794445054e-01
 3  2  1     9.3496273112e-02
 3  2  2    -1.4036786583e-01
 3  2  3     0.0000000000e+00
 3  3  1    -3.3354318587e-01
 3  3  2     1.4036786583e-01
 3  3  3     0.0000000000e+00

   22
0.0000000000e+00 0.0000000000e+00 0.0000000000e+00
2.7319946255e+00 0.0000000000e+00 2.7319946255e+00
     1      2      2
 1  1  1     0.0000000000e+00
 1  1  2     3.3354318587e-01
 1  1  3    -1.4036786583e-01
 1  2  1     3.3354318587e-01
 1  2  2     0.0000000000e+00
 1  2  3    -9.3496273112e-02
 1  3  1     1.4036786583e-01
 1  3  2    -9.3496273112e-02
 1  3  3     0.0000000000e+00
 2  1  1    -3.9794445054e-01
 2  1  2     2.4880834598e-01
 2  1  3    -6.8598782611e-01
 2  2  1    -2.4880834598e-01
 2  2  2    -3.6555546953e-03
 2  2  3    -2.4880834598e-01
 2  3  1    -6.8598782611e-01
 2  3  2     2.4880834598e-01
 2  3  3    -3.9794445054e-01
 3  1  1     0.0000000000e+00
 3  1  2    -9.3496273112e-02
 3  1  3     1.4036786583e-01
 3  2  1    -9.3496273112e-02
 3  2  2     0.0000000000e+00
 3  2  3     3.3354318587e-01
 3  3  1    -1.4036786583e-01
 3  3  2     3.3354318587e-01
 3  3  3     0.0000000000e+00

   23
0.0000000000e+00 0.0000000000e+00 0.0000000000e+00
-2.7319946255e+00 0.0000000000e+00 -2.7319946255e+00
     1      2      1
 1  1  1     0.0000000000e+00
 1  1  2    -3.3354318587e-01
 1  1  3     1.4036786583e-01
 1  2  1     3.9794445054e-01
 1  2  2    -2.4880834598e-01
 1  2  3     6.8598782611e-01
 1  3  1     0.0000000000e+00
 1  3  2     9.3496273112e-02
 1  3  3    -1.4036786583e-01
 2  1  1    -3.3354318587e-01
 2  1  2     0.0000000000e+00
 2  1  3     9.3496273112e-02
 2  2  1     2.4880834598e-01
 2  2  2     3.6555546953e-03
 2  2  3     2.4880834598e-01
 2  3  1     9.3496273112e-02
 2  3  2     0.0000000000e+00
 2  3  3    -3.3354318587e-01
 3  1  1    -1.4036786583e-01
 3  1  2     9.3496273112e-02
 3  1  3     0.0000000000e+00
 3  2  1     6.8598782611e-01
 3  2  2    -2.4880834598e-01
 3  2  3     3.9794445054e-01
 3  3  1     1.4036786583e-01
 3  3  2    -3.3354318587e-01
 3  3  3     0.0000000000e+00

   24
0.0000000000e+00 0.0000000000e+00 0.0000000000e+00
2.7319946255e+00 2.7319946255e+00 0.0000000000e+00
     1      2      2
 1  1  1     0.0000000000e+00
 1  1  2    -1.4036786583e-01
 1  1  3     3.3354318587e-01
 1  2  1     1.4036786583e-01
 1  2  2     0.0000000000e+00
 1  2  3    -9.3496273112e-02
 1  3  1     3.3354318587e-01
 1  3  2    -9.3496273112e-02
 1  3  3     0.0000000000e+00
 2  1  1     0.0000000000e+00
 2  1  2     1.4036786583e-01
 2  1  3    -9.3496273112e-02
 2  2  1    -1.4036786583e-01
 2  2  2     0.0000000000e+00
 2  2  3     3.3354318587e-01
 2  3  1    -9.3496273112e-02
 2  3  2     3.3354318587e-01
 2  3  3     0.0000000000e+00
 3  1  1    -3.9794445054e-01
 3  1  2    -6.8598782611e-01
 3  1  3     2.4880834598e-01
 3  2  1    -6.8598782611e-01
 3  2  2    -3.9794445054e-01
 3  2  3     2.4880834598e-01
 3  3  1    -2.4880834598e-01
 3  3  2    -2.4880834598e-01
 3  3  3    -3.6555546953e-03

   25
0.0000000000e+00 0.0000000000e+00 0.0000000000e+00
-2.7319946255e+00 -2.7319946255e+00 0.0000000000e+00
     1      2      1
 1  1  1     0.0000000000e+00
 1  1  2     1.4036786583e-01
 1  1  3    -3.3354318587e-01
 1  2  1     0.0000000000e+00
 1  2  2    -1.4036786583e-01
 1  2  3     9.3496273112e-02
 1  3  1     3.9794445054e-01
 1  3  2     6.8598782611e-01
 1  3  3    -2.4880834598e-01
 2  1  1    -1.4036786583e-01
 2  1  2     0.0000000000e+00
 2  1  3     9.3496273112e-02
 2  2  1     1.4036786583e-01
 2  2  2     0.0000000000e+00
 2  2  3    -3.3354318587e-01
 2  3  1     6.8598782611e-01
 2  3  2     3.9794445054e-01
 2  3  3    -2.4880834598e-01
 3  1  1    -3.3354318587e-01
 3  1  2     9.3496273112e-02
 3  1  3     0.0000000000e+00
 3  2  1     9.3496273112e-02
 3  2  2    -3.3354318587e-01
 3  2  3     0.0000000000e+00
 3  3  1     2.4880834598e-01
 3  3  2     2.4880834598e-01
 3  3  3     3.6555546953e-03

   26
0.0000000000e+00 2.7319946255e+00 2.7319946255e+00
0.0000000000e+00 0.0000000000e+00 0.0000000000e+00
     1      1      1
 1  1  1     1.2408626981e-03
 1  1  2    -2.3194765674e-02
 1  1  3    -2.3194765674e-02
 1  2  1     5.6241755275e-02
 1  2  2    -8.4785639597e-02
 1  2  3    -1.8730985589e-01
 1  3  1     5.6241755275e-02
 1  3  2    -1.8730985589e-01
 1  3  3    -8.4785639597e-02
 2  1  1    -2.3194765674e-02
 2  1  2     3.5123913060e-01
 2  1  3     1.9438310364e-01
 2  2  1    -8.4785639597e-02
 2  2  2     8.1632528558e-02
 2  2  3    -5.9213711711e-02
 2  3  1    -1.8730985589e-01
 2  3  2     3.1610087987e-02
 2  3  3    -5.9213711711e-02
 3  1  1    -2.3194765674e-02
 3  1  2     1.9438310364e-01
 3  1  3     3.5123913060e-01
 3  2  1    -1.8730985589e-01
 3  2  2    -5.9213711711e-02
 3  2  3     3.1610087987e-02
 3  3  1    -8.4785639597e-02
 3  3  2    -5.9213711711e-02
 3  3  3     8.1632528558e-02

   27
0.0000000000e+00 2.7319946255e+00 2.7319946255e+00
0.0000000000e+00 2.7319946255e+00 2.7319946255e+00
     1      1      1
 1  1  1     1.2408626981e-03
 1  1  2     2.3194765674e-02
 1  1  3     2.3194765674e-02
 1  2  1     2.3194765674e-02
 1  2  2     3.5123913060e-01
 1  2  3     1.9438310364e-01
 1  3  1     2.3194765674e-02
 1  3  2     1.9438310364e-01
 1  3  3     3.5123913060e-01
 2  1  1    -5.6241755275e-02
 2  1  2    -8.4785639597e-02
 2  1  3    -1.8730985589e-01
 2  2  1    -8.4785639597e-02
 2  2  2    -8.1632528558e-02
 2  2  3     5.9213711711e-02
 2  3  1    -1.8730985589e-01
 2  3  2     5.9213711711e-02
 2  3  3    -3.1610087987e-02
 3  1  1    -5.6241755275e-02
 3  1  2    -1.8730985589e-01
 3  1  3    -8.4785639597e-02
 3  2  1    -1.8730985589e-01
 3  2  2    -3.1610087987e-02
 3  2  3     5.9213711711e-02
 3  3  1    -8.4785639597e-02
 3  3  2     5.9213711711e-02
 3  3  3    -8.1632528558e-02

   28
0.0000000000e+00 2.7319946255e+00 2.7319946255e+00
0.0000000000e+00 2.7319946255e+00 2.7319946255e+00
     1      1      2
 1  1  1     3.6555546953e-03
 1  1  2     0.0000000000e+00
 1  1  3     0.0000000000e+00
 1  2  1    -2.4880834598e-01
 1  2  2    -3.3354318587e-01
 1  2  3     9.3496273112e-02
 1  3  1    -2.4880834598e-01
 1  3  2     9.3496273112e-02
 1  3  3    -3.3354318587e-01
 2  1  1     2.4880834598e-01
 2  1  2    -3.3354318587e-01
 2  1  3     9.3496273112e-02
 2  2  1     3.9794445054e-01
 2  2  2     0.0000000000e+00
 2  2  3     0.0000000000e+00
 2  3  1     6.8598782611e-01
 2  3  2    -1.4036786583e-01
 2  3  3     1.4036786583e-01
 3  1  1     2.4880834598e-01
 3  1  2     9.3496273112e-02
 3  1  3    -3.3354318587e-01
 3  2  1     6.8598782611e-01
 3  2  2     1.4036786583e-01
 3  2  3    -1.4036786583e-01
 3  3  1     3.9794445054e-01
 3  3  2     0.0000000000e+00
 3  3  3     0.0000000000e+00

   29
0.0000000000e+00 2.7319946255e+00 2.7319946255e+00
2.7319946255e+00 0.0000000000e+00 2.7319946255e+00
     1      1      1
 1  1  1     9.0867496502e-03
 1  1  2    -2.5821848638e-03
 1  1  3     2.5821848638e-03
 1  2  1    -1.5938333974e-02
 1  2  2     8.9790044432e-03
 1  2  3    -1.0906333247e-02
 1  3  1    -8.9790044432e-03
 1  3  2    -6.4578588881e-03
 1  3  3    -2.5821848638e-03
 2  1  1     8.9790044432e-03
 2  1  2    -2.5821848638e-03
 2  1  3    -6.4578588881e-03
 2  2  1    -1.5938333974e-02
 2  2  2     9.0867496502e-03
 2  2  3    -8.9790044432e-03
 2  3  1    -1.0906333247e-02
 2  3  2     2.5821848638e-03
 2  3  3    -2.5821848638e-03
 3  1  1     1.5938333974e-02
 3  1  2    -1.0906333247e-02
 3  1  3     8.9790044432e-03
 3  2  1    -5.0198407678e-02
 3  2  2     1.5938333974e-02
 3  2  3    -1.5938333974e-02
 3  3  1    -1.5938333974e-02
 3  3  2     8.9790044432e-03
 3  3  3    -9.0867496502e-03

   30
0.0000000000e+00 2.7319946255e+00 2.7319946255e+00
-2.7319946255e+00 2.7319946255e+00 0.0000000000e+00
     1      1      1
 1  1  1    -1.2155389696e-02
 1  1  2    -3.5348036457e-02
 1  1  3     3.5348036457e-02
 1  2  1     9.6040911747e-02
 1  2  2    -3.5348036457e-02
 1  2  3     7.9038044869e-02
 1  3  1     9.8248251699e-02
 1  3  2    -1.6224337434e-01
 1  3  3     9.6040911747e-02
 2  1  1    -9.8248251699e-02
 2  1  2     9.6040911747e-02
 2  1  3    -1.6224337434e-01
 2  2  1    -9.8248251699e-02
 2  2  2    -1.2155389696e-02
 2  2  3    -9.6040911747e-02
 2  3  1    -8.8020000111e-02
 2  3  2     9.8248251699e-02
 2  3  3    -9.8248251699e-02
 3  1  1    -9.6040911747e-02
 3  1  2     7.9038044869e-02
 3  1  3    -3.5348036457e-02
 3  2  1    -1.6224337434e-01
 3  2  2     3.5348036457e-02
 3  2  3    -3.5348036457e-02
 3  3  1    -9.8248251699e-02
 3  3  2     9.6040911747e-02
 3  3  3     1.2155389696e-02

   31
0.0000000000e+00 2.7319946255e+00 2.7319946255e+00
2.7319946255e+00 2.7319946255e+00 0.0000000000e+00
     1      1      1
 1  1  1     9.0867496502e-03
 1  1  2     2.5821848638e-03
 1  1  3    -2.5821848638e-03
 1  2  1    -8.9790044432e-03
 1  2  2    -2.5821848638e-03
 1  2  3    -6.4578588881e-03
 1  3  1    -1.5938333974e-02
 1  3  2    -1.0906333247e-02
 1  3  3     8.9790044432e-03
 2  1  1     1.5938333974e-02
 2  1  2     8.9790044432e-03
 2  1  3    -1.0906333247e-02
 2  2  1    -1.5938333974e-02
 2  2  2    -9.0867496502e-03
 2  2  3     8.9790044432e-03
 2  3  1    -5.0198407678e-02
 2  3  2    -1.5938333974e-02
 2  3  3     1.5938333974e-02
 3  1  1     8.9790044432e-03
 3  1  2    -6.4578588881e-03
 3  1  3    -2.5821848638e-03
 3  2  1    -1.0906333247e-02
 3  2  2    -2.5821848638e-03
 3  2  3     2.5821848638e-03
 3  3  1    -1.5938333974e-02
 3  3  2    -8.9790044432e-03
 3  3  3     9.0867496502e-03

   32
0.0000000000e+00 2.7319946255e+00 2.7319946255e+00
-2.7319946255e+00 0.0000000000e+00 2.7319946255e+00
     1      1      1
 1  1  1    -1.2155389696e-02
 1  1  2     3.5348036457e-02
 1  1  3    -3.5348036457e-02
 1  2  1     9.8248251699e-02
 1  2  2     9.6040911747e-02
 1  2  3    -1.6224337434e-01
 1  3  1     9.6040911747e-02
 1  3  2     7.9038044869e-02
 1  3  3    -3.5348036457e-02
 2  1  1    -9.6040911747e-02
 2  1  2    -3.5348036457e-02
 2  1  3     7.9038044869e-02
 2  2  1    -9.8248251699e-02
 2  2  2     1.2155389696e-02
 2  2  3     9.6040911747e-02
 2  3  1    -1.6224337434e-01
 2  3  2    -3.5348036457e-02
 2  3  3     3.5348036457e-02
 3  1  1    -9.8248251699e-02
 3  1  2    -1.6224337434e-01
 3  1  3     9.6040911747e-02
 3  2  1    -8.8020000111e-02
 3  2  2    -9.8248251699e-02