 1166

    1
0.0000000000e+00 0.0000000000e+00 0.0000000000e+00
0.0000000000e+00 0.0000000000e+00 0.0000000000e+00
     1      1      1
 1  1  1     0.0000000000e+00
 1  1  2     0.0000000000e+00
 1  1  3     0.0000000000e+00
 1  2  1     0.0000000000e+00
 1  2  2     0.0000000000e+00
 1  2  3    -3.1099600588e+01
 1  3  1     0.0000000000e+00
 1  3  2    -3.1099600588e+01
 1  3  3     0.0000000000e+00
 2  1  1     0.0000000000e+00
 2  1  2     0.0000000000e+00
 2  1  3    -3.1099600588e+01
 2  2  1     0.0000000000e+00
 2  2  2     0.0000000000e+00
 2  2  3     0.0000000000e+00
 2  3  1    -3.1099600588e+01
 2  3  2     0.0000000000e+00
 2  3  3     0.0000000000e+00
 3  1  1     0.0000000000e+00
 3  1  2    -3.1099600588e+01
 3  1  3     0.0000000000e+00
 3  2  1    -3.1099600588e+01
 3  2  2     0.0000000000e+00
 3  2  3     0.0000000000e+00
 3  3  1     0.0000000000e+00
 3  3  2     0.0000000000e+00
 3  3  3     0.0000000000e+00

    2
0.0000000000e+00 0.0000000000e+00 0.0000000000e+00
0.0000000000e+00 0.0000000000e+00 0.0000000000e+00
     1      1      2
 1  1  1     4.3580200285e+00
 1  1  2     5.4124340877e+00
 1  1  3     5.4124340877e+00
 1  2  1     6.1954683861e+00
 1  2  2     6.1954683861e+00
 1  2  3     8.2262187203e+00
 1  3  1     6.1954683861e+00
 1  3  2     8.2262187203e+00
 1  3  3     6.1954683861e+00
 2  1  1     6.1954683861e+00
 2  1  2     6.1954683861e+00
 2  1  3     8.2262187203e+00
 2  2  1     5.4124340877e+00
 2  2  2     4.3580200285e+00
 2  2  3     5.4124340877e+00
 2  3  1     8.2262187203e+00
 2  3  2     6.1954683861e+00
 2  3  3     6.1954683861e+00
 3  1  1     6.1954683861e+00
 3  1  2     8.2262187203e+00
 3  1  3     6.1954683861e+00
 3  2  1     8.2262187203e+00
 3  2  2     6.1954683861e+00
 3  2  3     6.1954683861e+00
 3  3  1     5.4124340877e+00
 3  3  2     5.4124340877e+00
 3  3  3     4.3580200285e+00

    3
0.0000000000e+00 0.0000000000e+00 0.0000000000e+00
0.0000000000e+00 2.7319946255e+00 2.7319946255e+00
     1      1      1
 1  1  1     3.6206040079e-03
 1  1  2     6.3348637999e-02
 1  1  3     6.3348637999e-02
 1  2  1    -2.7183948814e-02
 1  2  2    -1.5506903539e-01
 1  2  3    -2.3124811395e-01
 1  3  1    -2.7183948814e-02
 1  3  2    -2.3124811395e-01
 1  3  3    -1.5506903539e-01
 2  1  1    -2.7183948814e-02
 2  1  2    -1.5506903539e-01
 2  1  3    -2.3124811395e-01
 2  2  1     3.6928961323e-01
 2  2  2     8.5489183451e-02
 2  2  3     2.8462289340e-02
 2  3  1     2.1085205273e-01
 2  3  2    -6.0010872257e-02
 2  3  3    -6.0010872257e-02
 3  1  1    -2.7183948814e-02
 3  1  2    -2.3124811395e-01
 3  1  3    -1.5506903539e-01
 3  2  1     2.1085205273e-01
 3  2  2    -6.0010872257e-02
 3  2  3    -6.0010872257e-02
 3  3  1     3.6928961323e-01
 3  3  2     2.8462289340e-02
 3  3  3     8.5489183451e-02

    4
0.0000000000e+00 0.0000000000e+00 0.0000000000e+00
0.0000000000e+00 2.7319946255e+00 2.7319946255e+00
     1      1      2
 1  1  1     4.3580200285e+00
 1  1  2    -5.4124340877e+00
 1  1  3    -5.4124340877e+00
 1  2  1    -6.1954683861e+00
 1  2  2     6.1954683861e+00
 1  2  3     8.2262187203e+00
 1  3  1    -6.1954683861e+00
 1  3  2     8.2262187203e+00
 1  3  3     6.1954683861e+00
 2  1  1    -6.1954683861e+00
 2  1  2     6.1954683861e+00
 2  1  3     8.2262187203e+00
 2  2  1     5.4124340877e+00
 2  2  2    -4.3580200285e+00
 2  2  3    -5.4124340877e+00
 2  3  1     8.2262187203e+00
 2  3  2    -6.1954683861e+00
 2  3  3    -6.1954683861e+00
 3  1  1    -6.1954683861e+00
 3  1  2     8.2262187203e+00
 3  1  3     6.1954683861e+00
 3  2  1     8.2262187203e+00
 3  2  2    -6.1954683861e+00
 3  2  3    -6.1954683861e+00
 3  3  1     5.4124340877e+00
 3  3  2    -5.4124340877e+00
 3  3  3    -4.3580200285e+00

    5
0.0000000000e+00 0.0000000000e+00 0.0000000000e+00
0.0000000000e+00 -2.7319946255e+00 -2.7319946255e+00
     1      1      1
 1  1  1     3.6206040079e-03
 1  1  2    -6.3348637999e-02
 1  1  3    -6.3348637999e-02
 1  2  1     2.7183948814e-02
 1  2  2    -1.5506903539e-01
 1  2  3    -2.3124811395e-01
 1  3  1     2.7183948814e-02
 1  3  2    -2.3124811395e-01
 1  3  3    -1.5506903539e-01
 2  1  1     2.7183948814e-02
 2  1  2    -1.5506903539e-01
 2  1  3    -2.3124811395e-01
 2  2  1     3.6928961323e-01
 2  2  2    -8.5489183451e-02
 2  2  3    -2.8462289340e-02
 2  3  1     2.1085205273e-01
 2  3  2     6.0010872257e-02
 2  3  3     6.0010872257e-02
 3  1  1     2.7183948814e-02
 3  1  2    -2.3124811395e-01
 3  1  3    -1.5506903539e-01
 3  2  1     2.1085205273e-01
 3  2  2     6.0010872257e-02
 3  2  3     6.0010872257e-02
 3  3  1     3.6928961323e-01
 3  3  2    -2.8462289340e-02
 3  3  3    -8.5489183451e-02

    6
0.0000000000e+00 0.0000000000e+00 0.0000000000e+00
2.7319946255e+00 0.0000000000e+00 2.7319946255e+00
     1      1      1
 1  1  1     8.5489183451e-02
 1  1  2     3.6928961323e-01
 1  1  3     2.8462289340e-02
 1  2  1    -1.5506903539e-01
 1  2  2    -2.7183948814e-02
 1  2  3    -2.3124811395e-01
 1  3  1    -6.0010872257e-02
 1  3  2     2.1085205273e-01
 1  3  3    -6.0010872257e-02
 2  1  1    -1.5506903539e-01
 2  1  2    -2.7183948814e-02
 2  1  3    -2.3124811395e-01
 2  2  1     6.3348637999e-02
 2  2  2     3.6206040079e-03
 2  2  3     6.3348637999e-02
 2  3  1    -2.3124811395e-01
 2  3  2    -2.7183948814e-02
 2  3  3    -1.5506903539e-01
 3  1  1    -6.0010872257e-02
 3  1  2     2.1085205273e-01
 3  1  3    -6.0010872257e-02
 3  2  1    -2.3124811395e-01
 3  2  2    -2.7183948814e-02
 3  2  3    -1.5506903539e-01
 3  3  1     2.8462289340e-02
 3  3  2     3.6928961323e-01
 3  3  3     8.5489183451e-02

    7
0.0000000000e+00 0.0000000000e+00 0.0000000000e+00
2.7319946255e+00 0.0000000000e+00 2.7319946255e+00
     1      1      2
 1  1  1    -4.3580200285e+00
 1  1  2     5.4124340877e+00
 1  1  3    -5.4124340877e+00
 1  2  1     6.1954683861e+00
 1  2  2    -6.1954683861e+00
 1  2  3     8.2262187203e+00
 1  3  1    -6.1954683861e+00
 1  3  2     8.2262187203e+00
 1  3  3    -6.1954683861e+00
 2  1  1     6.1954683861e+00
 2  1  2    -6.1954683861e+00
 2  1  3     8.2262187203e+00
 2  2  1    -5.4124340877e+00
 2  2  2     4.3580200285e+00
 2  2  3    -5.4124340877e+00
 2  3  1     8.2262187203e+00
 2  3  2    -6.1954683861e+00
 2  3  3     6.1954683861e+00
 3  1  1    -6.1954683861e+00
 3  1  2     8.2262187203e+00
 3  1  3    -6.1954683861e+00
 3  2  1     8.2262187203e+00
 3  2  2    -6.1954683861e+00
 3  2  3     6.1954683861e+00
 3  3  1    -5.4124340877e+00
 3  3  2     5.4124340877e+00
 3  3  3    -4.3580200285e+00

    8
0.0000000000e+00 0.0000000000e+00 0.0000000000e+00
2.7319946255e+00 2.7319946255e+00 5.4639892509e+00
     1      1      2
 1  1  1     6.2349254096e-02
 1  1  2    -6.2653593406e-02
 1  1  3    -1.5986914234e-02
 1  2  1    -8.7813584093e-03
 1  2  2    -8.7813584093e-03
 1  2  3    -1.4270996375e-02
 1  3  1     2.2111590411e-02
 1  3  2    -8.9613919650e-02
 1  3  3    -1.0899885364e-01
 2  1  1    -8.7813584093e-03
 2  1  2    -8.7813584093e-03
 2  1  3    -1.4270996375e-02
 2  2  1    -6.2653593406e-02
 2  2  2     6.2349254096e-02
 2  2  3    -1.5986914234e-02
 2  3  1    -8.9613919650e-02
 2  3  2     2.2111590411e-02
 2  3  3    -1.0899885364e-01
 3  1  1     2.2111590411e-02
 3  1  2    -8.9613919650e-02
 3  1  3    -1.0899885364e-01
 3  2  1    -8.9613919650e-02
 3  2  2     2.2111590411e-02
 3  2  3    -1.0899885364e-01
 3  3  1    -6.2770066384e-02
 3  3  2    -6.2770066384e-02
 3  3  3    -2.5325367127e-01

    9
0.0000000000e+00 0.0000000000e+00 0.0000000000e+00
2.7319946255e+00 -2.7319946255e+00 0.0000000000e+00
     1      1      1
 1  1  1     8.5489183451e-02
 1  1  2    -2.8462289340e-02
 1  1  3    -3.6928961323e-01
 1  2  1     6.0010872257e-02
 1  2  2    -6.0010872257e-02
 1  2  3     2.1085205273e-01
 1  3  1     1.5506903539e-01
 1  3  2    -2.3124811395e-01
 1  3  3    -2.7183948814e-02
 2  1  1     6.0010872257e-02
 2  1  2    -6.0010872257e-02
 2  1  3     2.1085205273e-01
 2  2  1     2.8462289340e-02
 2  2  2    -8.5489183451e-02
 2  2  3    -3.6928961323e-01
 2  3  1    -2.3124811395e-01
 2  3  2     1.5506903539e-01
 2  3  3     2.7183948814e-02
 3  1  1     1.5506903539e-01
 3  1  2    -2.3124811395e-01
 3  1  3    -2.7183948814e-02
 3  2  1    -2.3124811395e-01
 3  2  2     1.5506903539e-01
 3  2  3     2.7183948814e-02
 3  3  1     6.3348637999e-02
 3  3  2    -6.3348637999e-02
 3  3  3    -3.6206040079e-03

   10
0.0000000000e+00 0.0000000000e+00 0.0000000000e+00
2.7319946255e+00 -2.7319946255e+00 0.0000000000e+00
     1      1      2
 1  1  1     6.2349254096e-02
 1  1  2     1.5986914234e-02
 1  1  3     6.2653593406e-02
 1  2  1    -2.2111590411e-02
 1  2  2    -1.0899885364e-01
 1  2  3    -8.9613919650e-02
 1  3  1     8.7813584093e-03
 1  3  2    -1.4270996375e-02
 1  3  3    -8.7813584093e-03
 2  1  1    -2.2111590411e-02
 2  1  2    -1.0899885364e-01
 2  1  3    -8.9613919650e-02
 2  2  1    -6.2770066384e-02
 2  2  2     2.5325367127e-01
 2  2  3     6.2770066384e-02
 2  3  1    -8.9613919650e-02
 2  3  2     1.0899885364e-01
 2  3  3    -2.2111590411e-02
 3  1  1     8.7813584093e-03
 3  1  2    -1.4270996375e-02
 3  1  3    -8.7813584093e-03
 3  2  1    -8.9613919650e-02
 3  2  2     1.0899885364e-01
 3  2  3    -2.2111590411e-02
 3  3  1    -6.2653593406e-02
 3  3  2     1.5986914234e-02
 3  3  3    -6.2349254096e-02

   11
0.0000000000e+00 0.0000000000e+00 0.0000000000e+00
-2.7319946255e+00 0.0000000000e+00 -2.7319946255e+00
     1      1      1
 1  1  1    -8.5489183451e-02
 1  1  2     3.6928961323e-01
 1  1  3    -2.8462289340e-02
 1  2  1    -1.5506903539e-01
 1  2  2     2.7183948814e-02
 1  2  3    -2.3124811395e-01
 1  3  1     6.0010872257e-02
 1  3  2     2.1085205273e-01
 1  3  3     6.0010872257e-02
 2  1  1    -1.5506903539e-01
 2  1  2     2.7183948814e-02
 2  1  3    -2.3124811395e-01
 2  2  1    -6.3348637999e-02
 2  2  2     3.6206040079e-03
 2  2  3    -6.3348637999e-02
 2  3  1    -2.3124811395e-01
 2  3  2     2.7183948814e-02
 2  3  3    -1.5506903539e-01
 3  1  1     6.0010872257e-02
 3  1  2     2.1085205273e-01
 3  1  3     6.0010872257e-02
 3  2  1    -2.3124811395e-01
 3  2  2     2.7183948814e-02
 3  2  3    -1.5506903539e-01
 3  3  1    -2.8462289340e-02
 3  3  2     3.6928961323e-01
 3  3  3    -8.5489183451e-02

   12
0.0000000000e+00 0.0000000000e+00 0.0000000000e+00
-2.7319946255e+00 2.7319946255e+00 0.0000000000e+00
     1      1      1
 1  1  1    -8.5489183451e-02
 1  1  2     2.8462289340e-02
 1  1  3    -3.6928961323e-01
 1  2  1    -6.0010872257e-02
 1  2  2     6.0010872257e-02
 1  2  3     2.1085205273e-01
 1  3  1     1.5506903539e-01
 1  3  2    -2.3124811395e-01
 1  3  3     2.7183948814e-02
 2  1  1    -6.0010872257e-02
 2  1  2     6.0010872257e-02
 2  1  3     2.1085205273e-01
 2  2  1    -2.8462289340e-02
 2  2  2     8.5489183451e-02
 2  2  3    -3.6928961323e-01
 2  3  1    -2.3124811395e-01
 2  3  2     1.5506903539e-01
 2  3  3    -2.7183948814e-02
 3  1  1     1.5506903539e-01
 3  1  2    -2.3124811395e-01
 3  1  3     2.7183948814e-02
 3  2  1    -2.3124811395e-01
 3  2  2     1.5506903539e-01
 3  2  3    -2.7183948814e-02
 3  3  1    -6.3348637999e-02
 3  3  2     6.3348637999e-02
 3  3  3    -3.6206040079e-03

   13
0.0000000000e+00 0.0000000000e+00 0.0000000000e+00
-2.7319946255e+00 2.7319946255e+00 0.0000000000e+00
     1      1      2
 1  1  1     2.5325367127e-01
 1  1  2    -6.2770066384e-02
 1  1  3     6.2770066384e-02
 1  2  1    -1.0899885364e-01
 1  2  2    -2.2111590411e-02
 1  2  3    -8.9613919650e-02
 1  3  1     1.0899885364e-01
 1  3  2    -8.9613919650e-02
 1  3  3    -2.2111590411e-02
 2  1  1    -1.0899885364e-01
 2  1  2    -2.2111590411e-02
 2  1  3    -8.9613919650e-02
 2  2  1     1.5986914234e-02
 2  2  2     6.2349254096e-02
 2  2  3     6.2653593406e-02
 2  3  1    -1.4270996375e-02
 2  3  2     8.7813584093e-03
 2  3  3    -8.7813584093e-03
 3  1  1     1.0899885364e-01
 3  1  2    -8.9613919650e-02
 3  1  3    -2.2111590411e-02
 3  2  1    -1.4270996375e-02
 3  2  2     8.7813584093e-03
 3  2  3    -8.7813584093e-03
 3  3  1     1.5986914234e-02
 3  3  2    -6.2653593406e-02
 3  3  3    -6.2349254096e-02

   14
0.0000000000e+00 0.0000000000e+00 0.0000000000e+00
2.7319946255e+00 2.7319946255e+00 0.0000000000e+00
     1      1      1
 1  1  1     8.5489183451e-02
 1  1  2     2.8462289340e-02
 1  1  3     3.6928961323e-01
 1  2  1    -6.0010872257e-02
 1  2  2    -6.0010872257e-02
 1  2  3     2.1085205273e-01
 1  3  1    -1.5506903539e-01
 1  3  2    -2.3124811395e-01
 1  3  3    -2.7183948814e-02
 2  1  1    -6.0010872257e-02
 2  1  2    -6.0010872257e-02
 2  1  3     2.1085205273e-01
 2  2  1     2.8462289340e-02
 2  2  2     8.5489183451e-02
 2  2  3     3.6928961323e-01
 2  3  1    -2.3124811395e-01
 2  3  2    -1.5506903539e-01
 2  3  3    -2.7183948814e-02
 3  1  1    -1.5506903539e-01
 3  1  2    -2.3124811395e-01
 3  1  3    -2.7183948814e-02
 3  2  1    -2.3124811395e-01
 3  2  2    -1.5506903539e-01
 3  2  3    -2.7183948814e-02
 3  3  1     6.3348637999e-02
 3  3  2     6.3348637999e-02
 3  3  3     3.6206040079e-03

   15
0.0000000000e+00 0.0000000000e+00 0.0000000000e+00
2.7319946255e+00 2.7319946255e+00 0.0000000000e+00
     1      1      2
 1  1  1    -4.3580200285e+00
 1  1  2    -5.4124340877e+00
 1  1  3     5.4124340877e+00
 1  2  1    -6.1954683861e+00
 1  2  2    -6.1954683861e+00
 1  2  3     8.2262187203e+00
 1  3  1     6.1954683861e+00
 1  3  2     8.2262187203e+00
 1  3  3    -6.1954683861e+00
 2  1  1    -6.1954683861e+00
 2  1  2    -6.1954683861e+00
 2  1  3     8.2262187203e+00
 2  2  1    -5.4124340877e+00
 2  2  2    -4.3580200285e+00
 2  2  3     5.4124340877e+00
 2  3  1     8.2262187203e+00
 2  3  2     6.1954683861e+00
 2  3  3    -6.1954683861e+00
 3  1  1     6.1954683861e+00
 3  1  2     8.2262187203e+00
 3  1  3    -6.1954683861e+00
 3  2  1     8.2262187203e+00
 3  2  2     6.1954683861e+00
 3  2  3    -6.1954683861e+00
 3  3  1    -5.4124340877e+00
 3  3  2    -5.4124340877e+00
 3  3  3     4.3580200285e+00

   16
0.0000000000e+00 0.0000000000e+00 0.0000000000e+00
2.7319946255e+00 5.4639892509e+00 2.7319946255e+00
     1      1      2
 1  1  1     6.2349254096e-02
 1  1  2    -1.5986914234e-02
 1  1  3    -6.2653593406e-02
 1  2  1     2.2111590411e-02
 1  2  2    -1.0899885364e-01
 1  2  3    -8.9613919650e-02
 1  3  1    -8.7813584093e-03
 1  3  2    -1.4270996375e-02
 1  3  3    -8.7813584093e-03
 2  1  1     2.2111590411e-02
 2  1  2    -1.0899885364e-01
 2  1  3    -8.9613919650e-02
 2  2  1    -6.2770066384e-02
 2  2  2    -2.5325367127e-01
 2  2  3    -6.2770066384e-02
 2  3  1    -8.9613919650e-02
 2  3  2    -1.0899885364e-01
 2  3  3     2.2111590411e-02
 3  1  1    -8.7813584093e-03
 3  1  2    -1.4270996375e-02
 3  1  3    -8.7813584093e-03
 3  2  1    -8.9613919650e-02
 3  2  2    -1.0899885364e-01
 3  2  3     2.2111590411e-02
 3  3  1    -6.2653593406e-02
 3  3  2    -1.5986914234e-02
 3  3  3     6.2349254096e-02

   17
0.0000000000e+00 0.0000000000e+00 0.0000000000e+00
2.7319946255e+00 0.0000000000e+00 -2.7319946255e+00
     1      1      1
 1  1  1     8.5489183451e-02
 1  1  2    -3.6928961323e-01
 1  1  3    -2.8462289340e-02
 1  2  1     1.5506903539e-01
 1  2  2    -2.7183948814e-02
 1  2  3    -2.3124811395e-01
 1  3  1     6.0010872257e-02
 1  3  2     2.1085205273e-01
 1  3  3    -6.0010872257e-02
 2  1  1     1.5506903539e-01
 2  1  2    -2.7183948814e-02
 2  1  3    -2.3124811395e-01
 2  2  1     6.3348637999e-02
 2  2  2    -3.6206040079e-03
 2  2  3    -6.3348637999e-02
 2  3  1    -2.3124811395e-01
 2  3  2     2.7183948814e-02
 2  3  3     1.5506903539e-01
 3  1  1     6.0010872257e-02
 3  1  2     2.1085205273e-01
 3  1  3    -6.0010872257e-02
 3  2  1    -2.3124811395e-01
 3  2  2     2.7183948814e-02
 3  2  3     1.5506903539e-01
 3  3  1     2.8462289340e-02
 3  3  2    -3.6928961323e-01
 3  3  3    -8.5489183451e-02

   18
0.0000000000e+00 0.0000000000e+00 0.0000000000e+00
2.7319946255e+00 0.0000000000e+00 -2.7319946255e+00
     1      1      2
 1  1  1     6.2349254096e-02
 1  1  2     6.2653593406e-02
 1  1  3     1.5986914234e-02
 1  2  1     8.7813584093e-03
 1  2  2    -8.7813584093e-03
 1  2  3    -1.4270996375e-02
 1  3  1    -2.2111590411e-02
 1  3  2    -8.9613919650e-02
 1  3  3    -1.0899885364e-01
 2  1  1     8.7813584093e-03
 2  1  2    -8.7813584093e-03
 2  1  3    -1.4270996375e-02
 2  2  1    -6.2653593406e-02
 2  2  2    -6.2349254096e-02
 2  2  3     1.5986914234e-02
 2  3  1    -8.9613919650e-02
 2  3  2    -2.2111590411e-02
 2  3  3     1.0899885364e-01
 3  1  1    -2.2111590411e-02
 3  1  2    -8.9613919650e-02
 3  1  3    -1.0899885364e-01
 3  2  1    -8.9613919650e-02
 3  2  2    -2.2111590411e-02
 3  2  3     1.0899885364e-01
 3  3  1    -6.2770066384e-02
 3  3  2     6.2770066384e-02
 3  3  3     2.5325367127e-01

   19
0.0000000000e+00 0.0000000000e+00 0.0000000000e+00
5.4639892509e+00 2.7319946255e+00 2.7319946255e+00
     1      1      2
 1  1  1    -2.5325367127e-01
 1  1  2    -6.2770066384e-02
 1  1  3    -6.2770066384e-02
 1  2  1    -1.0899885364e-01
 1  2  2     2.2111590411e-02
 1  2  3    -8.9613919650e-02
 1  3  1    -1.0899885364e-01
 1  3  2    -8.9613919650e-02
 1  3  3     2.2111590411e-02
 2  1  1    -1.0899885364e-01
 2  1  2     2.2111590411e-02
 2  1  3    -8.9613919650e-02
 2  2  1    -1.5986914234e-02
 2  2  2     6.2349254096e-02
 2  2  3    -6.2653593406e-02
 2  3  1    -1.4270996375e-02
 2  3  2    -8.7813584093e-03
 2  3  3    -8.7813584093e-03
 3  1  1    -1.0899885364e-01
 3  1  2    -8.9613919650e-02
 3  1  3     2.2111590411e-02
 3  2  1    -1.4270996375e-02
 3  2  2    -8.7813584093e-03
 3  2  3    -8.7813584093e-03
 3  3  1    -1.5986914234e-02
 3  3  2    -6.2653593406e-02
 3  3  3     6.2349254096e-02

   20
0.0000000000e+00 0.0000000000e+00 0.0000000000e+00
5.4639892509e+00 0.0000000000e+00 0.0000000000e+00
     1      1      1
 1  1  1     7.3276442958e-02
 1  1  2     0.0000000000e+00
 1  1  3     0.0000000000e+00
 1  2  1     0.0000000000e+00
 1  2  2    -2.5484162044e-02
 1  2  3    -3.9979594282e-03
 1  3  1     0.0000000000e+00
 1  3  2    -3.9979594282e-03
 1  3  3    -2.5484162044e-02
 2  1  1     0.0000000000e+00
 2  1  2    -2.5484162044e-02
 2  1  3    -3.9979594282e-03
 2  2  1     4.6334172752e-02
 2  2  2     0.0000000000e+00
 2  2  3     0.0000000000e+00
 2  3  1    -4.3552058754e-03
 2  3  2     0.0000000000e+00
 2  3  3     0.0000000000e+00
 3  1  1     0.0000000000e+00
 3  1  2    -3.9979594282e-03
 3  1  3    -2.5484162044e-02
 3  2  1    -4.3552058754e-03
 3  2  2     0.0000000000e+00
 3  2  3     0.0000000000e+00
 3  3  1     4.6334172752e-02
 3  3  2     0.0000000000e+00
 3  3  3     0.0000000000e+00

   21
0.0000000000e+00 0.0000000000e+00 0.0000000000e+00
5.4639892509e+00 0.0000000000e+00 0.0000000000e+00
     1      1      2
 1  1  1    -2.5325367127e-01
 1  1  2     6.2770066384e-02
 1  1  3     6.2770066384e-02
 1  2  1     1.0899885364e-01
 1  2  2     2.2111590411e-02
 1  2  3    -8.9613919650e-02
 1  3  1     1.0899885364e-01
 1  3  2    -8.9613919650e-02
 1  3  3     2.2111590411e-02
 2  1  1     1.0899885364e-01
 2  1  2     2.2111590411e-02
 2  1  3    -8.9613919650e-02
 2  2  1    -1.5986914234e-02
 2  2  2    -6.2349254096e-02
 2  2  3     6.2653593406e-02
 2  3  1    -1.4270996375e-02
 2  3  2     8.7813584093e-03
 2  3  3     8.7813584093e-03
 3  1  1     1.0899885364e-01
 3  1  2    -8.9613919650e-02
 3  1  3     2.2111590411e-02
 3  2  1    -1.4270996375e-02
 3  2  2     8.7813584093e-03
 3  2  3     8.7813584093e-03
 3  3  1    -1.5986914234e-02
 3  3  2     6.2653593406e-02
 3  3  3    -6.2349254096e-02

   22
0.0000000000e+00 0.0000000000e+00 0.0000000000e+00
0.0000000000e+00 2.7319946255e+00 -2.7319946255e+00
     1      1      1
 1  1  1    -3.6206040079e-03
 1  1  2     6.3348637999e-02
 1  1  3    -6.3348637999e-02
 1  2  1    -2.7183948814e-02
 1  2  2     1.5506903539e-01
 1  2  3    -2.3124811395e-01
 1  3  1     2.7183948814e-02
 1  3  2    -2.3124811395e-01
 1  3  3     1.5506903539e-01
 2  1  1    -2.7183948814e-02
 2  1  2     1.5506903539e-01
 2  1  3    -2.3124811395e-01
 2  2  1    -3.6928961323e-01
 2  2  2     8.5489183451e-02
 2  2  3    -2.8462289340e-02
 2  3  1     2.1085205273e-01
 2  3  2     6.0010872257e-02
 2  3  3    -6.0010872257e-02
 3  1  1     2.7183948814e-02
 3  1  2    -2.3124811395e-01
 3  1  3     1.5506903539e-01
 3  2  1     2.1085205273e-01
 3  2  2     6.0010872257e-02
 3  2  3    -6.0010872257e-02
 3  3  1    -3.6928961323e-01
 3  3  2     2.8462289340e-02
 3  3  3    -8.5489183451e-02

   23
0.0000000000e+00 0.0000000000e+00 0.0000000000e+00
0.0000000000e+00 2.7319946255e+00 -2.7319946255e+00
     1      1      2
 1  1  1    -6.2349254096e-02
 1  1  2    -6.2653593406e-02
 1  1  3     1.5986914234e-02
 1  2  1    -8.7813584093e-03
 1  2  2     8.7813584093e-03
 1  2  3    -1.4270996375e-02
 1  3  1    -2.2111590411e-02
 1  3  2    -8.9613919650e-02
 1  3  3     1.0899885364e-01
 2  1  1    -8.7813584093e-03
 2  1  2     8.7813584093e-03
 2  1  3    -1.4270996375e-02
 2  2  1     6.2653593406e-02
 2  2  2     6.2349254096e-02
 2  2  3     1.5986914234e-02
 2  3  1    -8.9613919650e-02
 2  3  2    -2.2111590411e-02
 2  3  3    -1.0899885364e-01
 3  1  1    -2.2111590411e-02
 3  1  2    -8.9613919650e-02
 3  1  3     1.0899885364e-01
 3  2  1    -8.9613919650e-02
 3  2  2    -2.2111590411e-02
 3  2  3    -1.0899885364e-01
 3  3  1     6.2770066384e-02
 3  3  2    -6.2770066384e-02
 3  3  3     2.5325367127e-01

   24
0.0000000000e+00 0.0000000000e+00 0.0000000000e+00
0.0000000000e+00 5.4639892509e+00 0.0000000000e+00
     1      1      1
 1  1  1     0.0000000000e+00
 1  1  2     4.6334172752e-02
 1  1  3     0.0000000000e+00
 1  2  1    -2.5484162044e-02
 1  2  2     0.0000000000e+00
 1  2  3    -3.9979594282e-03
 1  3  1     0.0000000000e+00
 1  3  2    -4.3552058754e-03
 1  3  3     0.0000000000e+00
 2  1  1    -2.5484162044e-02
 2  1  2     0.0000000000e+00
 2  1  3    -3.9979594282e-03
 2  2  1     0.0000000000e+00
 2  2  2     7.3276442958e-02
 2  2  3     0.0000000000e+00
 2  3  1    -3.9979594282e-03
 2  3  2     0.0000000000e+00
 2  3  3    -2.5484162044e-02
 3  1  1     0.0000000000e+00
 3  1  2    -4.3552058754e-03
 3  1  3     0.0000000000e+00
 3  2  1    -3.9979594282e-03
 3  2  2     0.0000000000e+00
 3  2  3    -2.5484162044e-02
 3  3  1     0.0000000000e+00
 3  3  2     4.6334172752e-02
 3  3  3     0.0000000000e+00

   25
0.0000000000e+00 0.0000000000e+00 0.0000000000e+00
0.0000000000e+00 5.4639892509e+00 0.0000000000e+00
     1      1      2
 1  1  1    -6.2349254096e-02
 1  1  2    -1.5986914234e-02
 1  1  3     6.2653593406e-02
 1  2  1     2.2111590411e-02
 1  2  2     1.0899885364e-01
 1  2  3    -8.9613919650e-02
 1  3  1     8.7813584093e-03
 1  3  2    -1.4270996375e-02
 1  3  3     8.7813584093e-03
 2  1  1     2.2111590411e-02
 2  1  2     1.0899885364e-01
 2  1  3    -8.9613919650e-02
 2  2  1     6.2770066384e-02
 2  2  2    -2.5325367127e-01
 2  2  3     6.2770066384e-02
 2  3  1    -8.9613919650e-02
 2  3  2     1.0899885364e-01
 2  3  3     2.2111590411e-02
 3  1  1     8.7813584093e-03
 3  1  2    -1.4270996375e-02
 3  1  3     8.7813584093e-03
 3  2  1    -8.9613919650e-02
 3  2  2     1.0899885364e-01
 3  2  3     2.2111590411e-02
 3  3  1     6.2653593406e-02
 3  3  2    -1.5986914234e-02
 3  3  3    -6.2349254096e-02

   26
0.0000000000e+00 0.0000000000e+00 0.0000000000e+00
0.0000000000e+00 0.0000000000e+00 -5.4639892509e+00
     1      1      1
 1  1  1     0.0000000000e+00
 1  1  2     0.0000000000e+00
 1  1  3    -4.6334172752e-02
 1  2  1     0.0000000000e+00
 1  2  2     0.0000000000e+00
 1  2  3    -4.3552058754e-03
 1  3  1     2.5484162044e-02
 1  3  2    -3.9979594282e-03
 1  3  3     0.0000000000e+00
 2  1  1     0.0000000000e+00
 2  1  2     0.0000000000e+00
 2  1  3    -4.3552058754e-03
 2  2  1     0.0000000000e+00
 2  2  2     0.0000000000e+00
 2  2  3    -4.6334172752e-02
 2  3  1    -3.9979594282e-03
 2  3  2     2.5484162044e-02
 2  3  3     0.0000000000e+00
 3  1  1     2.5484162044e-02
 3  1  2    -3.9979594282e-03
 3  1  3     0.0000000000e+00
 3  2  1    -3.9979594282e-03
 3  2  2     2.5484162044e-02
 3  2  3     0.0000000000e+00
 3  3  1     0.0000000000e+00
 3  3  2     0.0000000000e+00
 3  3  3    -7.3276442958e-02

   27
0.0000000000e+00 0.0000000000e+00 0.0000000000e+00
-2.7319946255e+00 -2.7319946255e+00 0.0000000000e+00
     1      1      1
 1  1  1    -8.5489183451e-02
 1  1  2    -2.8462289340e-02
 1  1  3     3.6928961323e-01
 1  2  1     6.0010872257e-02
 1  2  2     6.0010872257e-02
 1  2  3     2.1085205273e-01
 1  3  1    -1.5506903539e-01
 1  3  2    -2.3124811395e-01
 1  3  3     2.7183948814e-02
 2  1  1     6.0010872257e-02
 2  1  2     6.0010872257e-02
 2  1  3     2.1085205273e-01
 2  2  1    -2.8462289340e-02
 2  2  2    -8.5489183451e-02
 2  2  3     3.6928961323e-01
 2  3  1    -2.3124811395e-01
 2  3  2    -1.5506903539e-01
 2  3  3     2.7183948814e-02
 3  1  1    -1.5506903539e-01
 3  1  2    -2.3124811395e-01
 3  1  3     2.7183948814e-02
 3  2  1    -2.3124811395e-01
 3  2  2    -1.5506903539e-01
 3  2  3     2.7183948814e-02
 3  3  1    -6.3348637999e-02
 3  3  2    -6.3348637999e-02
 3  3  3     3.6206040079e-03

   28
0.0000000000e+00 0.0000000000e+00 0.0000000000e+00
-2.7319946255e+00 0.0000000000e+00 2.7319946255e+00
     1      1      1
 1  1  1    -8.5489183451e-02
 1  1  2    -3.6928961323e-01
 1  1  3     2.8462289340e-02
 1  2  1     1.5506903539e-01
 1  2  2     2.7183948814e-02
 1  2  3    -2.3124811395e-01
 1  3  1    -6.0010872257e-02
 1  3  2     2.1085205273e-01
 1  3  3     6.0010872257e-02
 2  1  1     1.5506903539e-01
 2  1  2     2.7183948814e-02
 2  1  3    -2.3124811395e-01
 2  2  1    -6.3348637999e-02
 2  2  2    -3.6206040079e-03
 2  2  3     6.3348637999e-02
 2  3  1    -2.3124811395e-01
 2  3  2    -2.7183948814e-02
 2  3  3     1.5506903539e-01
 3  1  1    -6.0010872257e-02
 3  1  2     2.1085205273e-01
 3  1  3     6.0010872257e-02
 3  2  1    -2.3124811395e-01
 3  2  2    -2.7183948814e-02
 3  2  3     1.5506903539e-01
 3  3  1    -2.8462289340e-02
 3  3  2    -3.6928961323e-01
 3  3  3     8.5489183451e-02

   29
0.0000000000e+00 0.0000000000e+00 0.0000000000e+00
-2.7319946255e+00 0.0000000000e+00 2.7319946255e+00
     1      1      2
 1  1  1     2.5325367127e-01
 1  1  2     6.2770066384e-02
 1  1  3    -6.2770066384e-02
 1  2  1     1.0899885364e-01
 1  2  2    -2.2111590411e-02
 1  2  3    -8.9613919650e-02
 1  3  1    -1.0899885364e-01
 1  3  2    -8.9613919650e-02
 1  3  3    -2.2111590411e-02
 2  1  1     1.0899885364e-01
 2  1  2    -2.2111590411e-02
 2  1  3    -8.9613919650e-02
 2  2  1     1.5986914234e-02
 2  2  2    -6.2349254096e-02
 2  2  3    -6.2653593406e-02
 2  3  1    -1.4270996375e-02
 2  3  2    -8.7813584093e-03
 2  3  3     8.7813584093e-03
 3  1  1    -1.0899885364e-01
 3  1  2    -8.9613919650e-02
 3  1  3    -2.2111590411e-02
 3  2  1    -1.4270996375e-02
 3  2  2    -8.7813584093e-03
 3  2  3     8.7813584093e-03
 3  3  1     1.5986914234e-02
 3  3  2     6.2653593406e-02
 3  3  3     6.2349254096e-02

   30
0.0000000000e+00 0.0000000000e+00 0.0000000000e+00
0.0000000000e+00 -2.7319946255e+00 2.7319946255e+00
     1      1      1
 1  1  1    -3.6206040079e-03
 1  1  2    -6.3348637999e-02
 1  1  3     6.3348637999e-02
 1  2  1     2.7183948814e-02
 1  2  2     1.5506903539e-01
 1  2  3    -2.3124811395e-01
 1  3  1    -2.7183948814e-02
 1  3  2    -2.3124811395e-01
 1  3  3     1.5506903539e-01
 2  1  1     2.7183948814e-02
 2  1  2     1.5506903539e-01
 2  1  3    -2.3124811395e-01
 2  2  1    -3.6928961323e-01
 2  2  2    -8.5489183451e-02
 2  2  3     2.8462289340e-02
 2  3  1     2.1085205273e-01
 2  3  2    -6.0010872257e-02
 2  3  3     6.0010872257e-02
 3  1  1    -2.7183948814e-02
 3  1  2    -2.3124811395e-01
 3  1  3     1.5506903539e-01
 3  2  1     2.1085205273e-01
 3  2  2    -6.0010872257e-02
 3  2  3     6.0010872257e-02
 3  3  1    -3.6928961323e-01
 3  3  2    -2.8462289340e-02
 3  3  3     8.5489183451e-02

   31
0.0000000000e+00 0.0000000000e+00 0.0000000000e+00
0.0000000000e+00 -2.7319946255e+00 2.7319946255e+00
     1      1      2
 1  1  1    -6.2349254096e-02
 1  1  2     1.5986914234e-02
 1  1  3    -6.2653593406e-02
 1  2  1    -2.2111590411e-02
 1  2  2     1.0899885364e-01
 1  2  3    -8.9613919650e-02
 1  3  1    -8.7813584093e-03
 1  3  2    -1.4270996375e-02
 1  3  3     8.7813584093e-03
 2  1  1    -2.2111590411e-02
 2  1  2     1.0899885364e-01
 2  1  3    -8.9613919650e-02
 2  2  1     6.2770066384e-02
 2  2  2     2.5325367127e-01
 2  2  3    -6.2770066384e-02
 2  3  1    -8.9613919650e-02
 2  3  2    -1.0899885364e-01
 2  3  3    -2.2111590411e-02
 3  1  1    -8.7813584093e-03
 3  1  2    -1.4270996375e-02
 3  1  3     8.7813584093e-03
 3  2  1    -8.9613919650e-02
 3  2  2    -1.0899885364e-01
 3  2  3    -2.2111590411e-02
 3  3  1     6.2653593406e-02
 3  3  2     1.5986914234e-02
 3  3  3     6.2349254096e-02

   32
0.0000000000e+00 0.0000000000e+00 0.0000000000e+00
0.0000000000e+00 0.0000000000e+00 5.4639892509e+00
     1      1      1
 1  1  1     0.0000000000e+00
 1  1  2     0.0000000000e+00
 1  1  3     4.6334172752e-02
 1  2  1     0.0000000000e+00
 1  2  2     0.0000000000e+00
 1  2  3    -4.3552058754e-03
 1  3  1    -2.5484162044e-02
 1  3  2    -3.9979594282e-03
 1  3  3     0.0000000000e+00
 2  1  1     0.0000000000e+00
 2  1  2     0.0000000000e+00
 2  1  3    -4.3552058754e-03
 2  2  1     0.0000000000e+00
 2  2  2     0.0000000000e+00
 2  2  3     4.6334172752e-02
 2  3  1    -3.9979594282e-03
 2  3  2    -2.5484162044e-02
 2  3  3     0.0000000000e+00
 3  1  1    -2.5484162044e-02
 3  1  2    -3.9979594282e-03
 3  1  3     0.0000000000e+00
 3  2  1    -3.9979594282e-03
 3  2  2    -2.5484162044e-02