 1166

    1
0.0000000000e+00 0.0000000000e+00 0.0000000000e+00
0.0000000000e+00 0.0000000000e+00 0.0000000000e+00
     1      1      1
 1  1  1     0.0000000000e+00
 1  1  2     0.0000000000e+00
 1  1  3     0.0000000000e+00
 1  2  1     0.0000000000e+00
 1  2  2     0.0000000000e+00
 1  2  3    -3.1124391168e+01
 1  3  1     0.0000000000e+00
 1  3  2    -3.1124391168e+01
 1  3  3     0.0000000000e+00
 2  1  1     0.0000000000e+00
 2  1  2     0.0000000000e+00
 2  1  3    -3.1124391168e+01
 2  2  1     0.0000000000e+00
 2  2  2     0.0000000000e+00
 2  2  3     0.0000000000e+00
 2  3  1    -3.1124391168e+01
 2  3  2     0.0000000000e+00
 2  3  3     0.0000000000e+00
 3  1  1     0.0000000000e+00
 3  1  2    -3.1124391168e+01
 3  1  3     0.0000000000e+00
 3  2  1    -3.1124391168e+01
 3  2  2     0.0000000000e+00
 3  2  3     0.0000000000e+00
 3  3  1     0.0000000000e+00
 3  3  2     0.0000000000e+00
 3  3  3     0.0000000000e+00

    2
0.0000000000e+00 0.0000000000e+00 0.0000000000e+00
0.0000000000e+00 0.0000000000e+00 0.0000000000e+00
     1      1      2
 1  1  1     4.3689472174e+00
 1  1  2     5.4240054923e+00
 1  1  3     5.4240054923e+00
 1  2  1     6.1872541508e+00
 1  2  2     6.1872541508e+00
 1  2  3     8.2194956544e+00
 1  3  1     6.1872541508e+00
 1  3  2     8.2194956544e+00
 1  3  3     6.1872541508e+00
 2  1  1     6.1872541508e+00
 2  1  2     6.1872541508e+00
 2  1  3     8.2194956544e+00
 2  2  1     5.4240054923e+00
 2  2  2     4.3689472174e+00
 2  2  3     5.4240054923e+00
 2  3  1     8.2194956544e+00
 2  3  2     6.1872541508e+00
 2  3  3     6.1872541508e+00
 3  1  1     6.1872541508e+00
 3  1  2     8.2194956544e+00
 3  1  3     6.1872541508e+00
 3  2  1     8.2194956544e+00
 3  2  2     6.1872541508e+00
 3  2  3     6.1872541508e+00
 3  3  1     5.4240054923e+00
 3  3  2     5.4240054923e+00
 3  3  3     4.3689472174e+00

    3
0.0000000000e+00 0.0000000000e+00 0.0000000000e+00
0.0000000000e+00 2.7319946255e+00 2.7319946255e+00
     1      1      1
 1  1  1    -3.6549471674e-16
 1  1  2     6.2791869891e-02
 1  1  3     6.2791869891e-02
 1  2  1    -3.9131774196e-02
 1  2  2    -1.5148333927e-01
 1  2  3    -2.2171269417e-01
 1  3  1    -3.9131774196e-02
 1  3  2    -2.2171269417e-01
 1  3  3    -1.5148333927e-01
 2  1  1    -3.9131774196e-02
 2  1  2    -1.5148333927e-01
 2  1  3    -2.2171269417e-01
 2  2  1     3.7650151595e-01
 2  2  2     8.6774735082e-02
 2  2  3     3.4491113503e-02
 2  3  1     2.1492962069e-01
 2  3  2    -5.4653260130e-02
 2  3  3    -5.4653260130e-02
 3  1  1    -3.9131774196e-02
 3  1  2    -2.2171269417e-01
 3  1  3    -1.5148333927e-01
 3  2  1     2.1492962069e-01
 3  2  2    -5.4653260130e-02
 3  2  3    -5.4653260130e-02
 3  3  1     3.7650151595e-01
 3  3  2     3.4491113503e-02
 3  3  3     8.6774735082e-02

    4
0.0000000000e+00 0.0000000000e+00 0.0000000000e+00
0.0000000000e+00 2.7319946255e+00 2.7319946255e+00
     1      1      2
 1  1  1     4.3689472174e+00
 1  1  2    -5.4240054923e+00
 1  1  3    -5.4240054923e+00
 1  2  1    -6.1872541508e+00
 1  2  2     6.1872541508e+00
 1  2  3     8.2194956544e+00
 1  3  1    -6.1872541508e+00
 1  3  2     8.2194956544e+00
 1  3  3     6.1872541508e+00
 2  1  1    -6.1872541508e+00
 2  1  2     6.1872541508e+00
 2  1  3     8.2194956544e+00
 2  2  1     5.4240054923e+00
 2  2  2    -4.3689472174e+00
 2  2  3    -5.4240054923e+00
 2  3  1     8.2194956544e+00
 2  3  2    -6.1872541508e+00
 2  3  3    -6.1872541508e+00
 3  1  1    -6.1872541508e+00
 3  1  2     8.2194956544e+00
 3  1  3     6.1872541508e+00
 3  2  1     8.2194956544e+00
 3  2  2    -6.1872541508e+00
 3  2  3    -6.1872541508e+00
 3  3  1     5.4240054923e+00
 3  3  2    -5.4240054923e+00
 3  3  3    -4.3689472174e+00

    5
0.0000000000e+00 0.0000000000e+00 0.0000000000e+00
0.0000000000e+00 -2.7319946255e+00 -2.7319946255e+00
     1      1      1
 1  1  1    -3.6549471674e-16
 1  1  2    -6.2791869891e-02
 1  1  3    -6.2791869891e-02
 1  2  1     3.9131774196e-02
 1  2  2    -1.5148333927e-01
 1  2  3    -2.2171269417e-01
 1  3  1     3.9131774196e-02
 1  3  2    -2.2171269417e-01
 1  3  3    -1.5148333927e-01
 2  1  1     3.9131774196e-02
 2  1  2    -1.5148333927e-01
 2  1  3    -2.2171269417e-01
 2  2  1     3.7650151595e-01
 2  2  2    -8.6774735082e-02
 2  2  3    -3.4491113503e-02
 2  3  1     2.1492962069e-01
 2  3  2     5.4653260130e-02
 2  3  3     5.4653260130e-02
 3  1  1     3.9131774196e-02
 3  1  2    -2.2171269417e-01
 3  1  3    -1.5148333927e-01
 3  2  1     2.1492962069e-01
 3  2  2     5.4653260130e-02
 3  2  3     5.4653260130e-02
 3  3  1     3.7650151595e-01
 3  3  2    -3.4491113503e-02
 3  3  3    -8.6774735082e-02

    6
0.0000000000e+00 0.0000000000e+00 0.0000000000e+00
2.7319946255e+00 0.0000000000e+00 2.7319946255e+00
     1      1      1
 1  1  1     8.6774735082e-02
 1  1  2     3.7650151595e-01
 1  1  3     3.4491113503e-02
 1  2  1    -1.5148333927e-01
 1  2  2    -3.9131774196e-02
 1  2  3    -2.2171269417e-01
 1  3  1    -5.4653260130e-02
 1  3  2     2.1492962069e-01
 1  3  3    -5.4653260130e-02
 2  1  1    -1.5148333927e-01
 2  1  2    -3.9131774196e-02
 2  1  3    -2.2171269417e-01
 2  2  1     6.2791869891e-02
 2  2  2    -3.6549471674e-16
 2  2  3     6.2791869891e-02
 2  3  1    -2.2171269417e-01
 2  3  2    -3.9131774196e-02
 2  3  3    -1.5148333927e-01
 3  1  1    -5.4653260130e-02
 3  1  2     2.1492962069e-01
 3  1  3    -5.4653260130e-02
 3  2  1    -2.2171269417e-01
 3  2  2    -3.9131774196e-02
 3  2  3    -1.5148333927e-01
 3  3  1     3.4491113503e-02
 3  3  2     3.7650151595e-01
 3  3  3     8.6774735082e-02

    7
0.0000000000e+00 0.0000000000e+00 0.0000000000e+00
2.7319946255e+00 0.0000000000e+00 2.7319946255e+00
     1      1      2
 1  1  1    -4.3689472174e+00
 1  1  2     5.4240054923e+00
 1  1  3    -5.4240054923e+00
 1  2  1     6.1872541508e+00
 1  2  2    -6.1872541508e+00
 1  2  3     8.2194956544e+00
 1  3  1    -6.1872541508e+00
 1  3  2     8.2194956544e+00
 1  3  3    -6.1872541508e+00
 2  1  1     6.1872541508e+00
 2  1  2    -6.1872541508e+00
 2  1  3     8.2194956544e+00
 2  2  1    -5.4240054923e+00
 2  2  2     4.3689472174e+00
 2  2  3    -5.4240054923e+00
 2  3  1     8.2194956544e+00
 2  3  2    -6.1872541508e+00
 2  3  3     6.1872541508e+00
 3  1  1    -6.1872541508e+00
 3  1  2     8.2194956544e+00
 3  1  3    -6.1872541508e+00
 3  2  1     8.2194956544e+00
 3  2  2    -6.1872541508e+00
 3  2  3     6.1872541508e+00
 3  3  1    -5.4240054923e+00
 3  3  2     5.4240054923e+00
 3  3  3    -4.3689472174e+00

    8
0.0000000000e+00 0.0000000000e+00 0.0000000000e+00
2.7319946255e+00 2.7319946255e+00 5.4639892509e+00
     1      1      2
 1  1  1     5.3350392680e-02
 1  1  2    -5.4878643344e-02
 1  1  3    -3.1977275336e-02
 1  2  1    -6.8898852424e-03
 1  2  2    -6.8898852424e-03
 1  2  3    -1.8912562594e-02
 1  3  1     2.4835245397e-02
 1  3  2    -8.8677713626e-02
 1  3  3    -1.2861955558e-01
 2  1  1    -6.8898852424e-03
 2  1  2    -6.8898852424e-03
 2  1  3    -1.8912562594e-02
 2  2  1    -5.4878643344e-02
 2  2  2     5.3350392680e-02
 2  2  3    -3.1977275336e-02
 2  3  1    -8.8677713626e-02
 2  3  2     2.4835245397e-02
 2  3  3    -1.2861955558e-01
 3  1  1     2.4835245397e-02
 3  1  2    -8.8677713626e-02
 3  1  3    -1.2861955558e-01
 3  2  1    -8.8677713626e-02
 3  2  2     2.4835245397e-02
 3  2  3    -1.2861955558e-01
 3  3  1    -6.5880312026e-02
 3  3  2    -6.5880312026e-02
 3  3  3    -2.6353808432e-01

    9
0.0000000000e+00 0.0000000000e+00 0.0000000000e+00
2.7319946255e+00 -2.7319946255e+00 0.0000000000e+00
     1      1      1
 1  1  1     8.6774735082e-02
 1  1  2    -3.4491113503e-02
 1  1  3    -3.7650151595e-01
 1  2  1     5.4653260130e-02
 1  2  2    -5.4653260130e-02
 1  2  3     2.1492962069e-01
 1  3  1     1.5148333927e-01
 1  3  2    -2.2171269417e-01
 1  3  3    -3.9131774196e-02
 2  1  1     5.4653260130e-02
 2  1  2    -5.4653260130e-02
 2  1  3     2.1492962069e-01
 2  2  1     3.4491113503e-02
 2  2  2    -8.6774735082e-02
 2  2  3    -3.7650151595e-01
 2  3  1    -2.2171269417e-01
 2  3  2     1.5148333927e-01
 2  3  3     3.9131774196e-02
 3  1  1     1.5148333927e-01
 3  1  2    -2.2171269417e-01
 3  1  3    -3.9131774196e-02
 3  2  1    -2.2171269417e-01
 3  2  2     1.5148333927e-01
 3  2  3     3.9131774196e-02
 3  3  1     6.2791869891e-02
 3  3  2    -6.2791869891e-02
 3  3  3     3.6549471674e-16

   10
0.0000000000e+00 0.0000000000e+00 0.0000000000e+00
2.7319946255e+00 -2.7319946255e+00 5.5511151231e-16
     1      1      2
 1  1  1     5.3350392680e-02
 1  1  2     3.1977275336e-02
 1  1  3     5.4878643344e-02
 1  2  1    -2.4835245397e-02
 1  2  2    -1.2861955558e-01
 1  2  3    -8.8677713626e-02
 1  3  1     6.8898852424e-03
 1  3  2    -1.8912562594e-02
 1  3  3    -6.8898852424e-03
 2  1  1    -2.4835245397e-02
 2  1  2    -1.2861955558e-01
 2  1  3    -8.8677713626e-02
 2  2  1    -6.5880312026e-02
 2  2  2     2.6353808432e-01
 2  2  3     6.5880312026e-02
 2  3  1    -8.8677713626e-02
 2  3  2     1.2861955558e-01
 2  3  3    -2.4835245397e-02
 3  1  1     6.8898852424e-03
 3  1  2    -1.8912562594e-02
 3  1  3    -6.8898852424e-03
 3  2  1    -8.8677713626e-02
 3  2  2     1.2861955558e-01
 3  2  3    -2.4835245397e-02
 3  3  1    -5.4878643344e-02
 3  3  2     3.1977275336e-02
 3  3  3    -5.3350392680e-02

   11
0.0000000000e+00 0.0000000000e+00 0.0000000000e+00
-2.7319946255e+00 0.0000000000e+00 -2.7319946255e+00
     1      1      1
 1  1  1    -8.6774735082e-02
 1  1  2     3.7650151595e-01
 1  1  3    -3.4491113503e-02
 1  2  1    -1.5148333927e-01
 1  2  2     3.9131774196e-02
 1  2  3    -2.2171269417e-01
 1  3  1     5.4653260130e-02
 1  3  2     2.1492962069e-01
 1  3  3     5.4653260130e-02
 2  1  1    -1.5148333927e-01
 2  1  2     3.9131774196e-02
 2  1  3    -2.2171269417e-01
 2  2  1    -6.2791869891e-02
 2  2  2    -3.6549471674e-16
 2  2  3    -6.2791869891e-02
 2  3  1    -2.2171269417e-01
 2  3  2     3.9131774196e-02
 2  3  3    -1.5148333927e-01
 3  1  1     5.4653260130e-02
 3  1  2     2.1492962069e-01
 3  1  3     5.4653260130e-02
 3  2  1    -2.2171269417e-01
 3  2  2     3.9131774196e-02
 3  2  3    -1.5148333927e-01
 3  3  1    -3.4491113503e-02
 3  3  2     3.7650151595e-01
 3  3  3    -8.6774735082e-02

   12
0.0000000000e+00 0.0000000000e+00 0.0000000000e+00
-2.7319946255e+00 2.7319946255e+00 0.0000000000e+00
     1      1      1
 1  1  1    -8.6774735082e-02
 1  1  2     3.4491113503e-02
 1  1  3    -3.7650151595e-01
 1  2  1    -5.4653260130e-02
 1  2  2     5.4653260130e-02
 1  2  3     2.1492962069e-01
 1  3  1     1.5148333927e-01
 1  3  2    -2.2171269417e-01
 1  3  3     3.9131774196e-02
 2  1  1    -5.4653260130e-02
 2  1  2     5.4653260130e-02
 2  1  3     2.1492962069e-01
 2  2  1    -3.4491113503e-02
 2  2  2     8.6774735082e-02
 2  2  3    -3.7650151595e-01
 2  3  1    -2.2171269417e-01
 2  3  2     1.5148333927e-01
 2  3  3    -3.9131774196e-02
 3  1  1     1.5148333927e-01
 3  1  2    -2.2171269417e-01
 3  1  3     3.9131774196e-02
 3  2  1    -2.2171269417e-01
 3  2  2     1.5148333927e-01
 3  2  3    -3.9131774196e-02
 3  3  1    -6.2791869891e-02
 3  3  2     6.2791869891e-02
 3  3  3     3.6549471674e-16

   13
0.0000000000e+00 0.0000000000e+00 0.0000000000e+00
-2.7319946255e+00 2.7319946255e+00 5.5511151231e-16
     1      1      2
 1  1  1     2.6353808432e-01
 1  1  2    -6.5880312026e-02
 1  1  3     6.5880312026e-02
 1  2  1    -1.2861955558e-01
 1  2  2    -2.4835245397e-02
 1  2  3    -8.8677713626e-02
 1  3  1     1.2861955558e-01
 1  3  2    -8.8677713626e-02
 1  3  3    -2.4835245397e-02
 2  1  1    -1.2861955558e-01
 2  1  2    -2.4835245397e-02
 2  1  3    -8.8677713626e-02
 2  2  1     3.1977275336e-02
 2  2  2     5.3350392680e-02
 2  2  3     5.4878643344e-02
 2  3  1    -1.8912562594e-02
 2  3  2     6.8898852424e-03
 2  3  3    -6.8898852424e-03
 3  1  1     1.2861955558e-01
 3  1  2    -8.8677713626e-02
 3  1  3    -2.4835245397e-02
 3  2  1    -1.8912562594e-02
 3  2  2     6.8898852424e-03
 3  2  3    -6.8898852424e-03
 3  3  1     3.1977275336e-02
 3  3  2    -5.4878643344e-02
 3  3  3    -5.3350392680e-02

   14
0.0000000000e+00 0.0000000000e+00 0.0000000000e+00
2.7319946255e+00 2.7319946255e+00 0.0000000000e+00
     1      1      1
 1  1  1     8.6774735082e-02
 1  1  2     3.4491113503e-02
 1  1  3     3.7650151595e-01
 1  2  1    -5.4653260130e-02
 1  2  2    -5.4653260130e-02
 1  2  3     2.1492962069e-01
 1  3  1    -1.5148333927e-01
 1  3  2    -2.2171269417e-01
 1  3  3    -3.9131774196e-02
 2  1  1    -5.4653260130e-02
 2  1  2    -5.4653260130e-02
 2  1  3     2.1492962069e-01
 2  2  1     3.4491113503e-02
 2  2  2     8.6774735082e-02
 2  2  3     3.7650151595e-01
 2  3  1    -2.2171269417e-01
 2  3  2    -1.5148333927e-01
 2  3  3    -3.9131774196e-02
 3  1  1    -1.5148333927e-01
 3  1  2    -2.2171269417e-01
 3  1  3    -3.9131774196e-02
 3  2  1    -2.2171269417e-01
 3  2  2    -1.5148333927e-01
 3  2  3    -3.9131774196e-02
 3  3  1     6.2791869891e-02
 3  3  2     6.2791869891e-02
 3  3  3    -3.6549471674e-16

   15
0.0000000000e+00 0.0000000000e+00 0.0000000000e+00
2.7319946255e+00 2.7319946255e+00 0.0000000000e+00
     1      1      2
 1  1  1    -4.3689472174e+00
 1  1  2    -5.4240054923e+00
 1  1  3     5.4240054923e+00
 1  2  1    -6.1872541508e+00
 1  2  2    -6.1872541508e+00
 1  2  3     8.2194956544e+00
 1  3  1     6.1872541508e+00
 1  3  2     8.2194956544e+00
 1  3  3    -6.1872541508e+00
 2  1  1    -6.1872541508e+00
 2  1  2    -6.1872541508e+00
 2  1  3     8.2194956544e+00
 2  2  1    -5.4240054923e+00
 2  2  2    -4.3689472174e+00
 2  2  3     5.4240054923e+00
 2  3  1     8.2194956544e+00
 2  3  2     6.1872541508e+00
 2  3  3    -6.1872541508e+00
 3  1  1     6.1872541508e+00
 3  1  2     8.2194956544e+00
 3  1  3    -6.1872541508e+00
 3  2  1     8.2194956544e+00
 3  2  2     6.1872541508e+00
 3  2  3    -6.1872541508e+00
 3  3  1    -5.4240054923e+00
 3  3  2    -5.4240054923e+00
 3  3  3     4.3689472174e+00

   16
0.0000000000e+00 0.0000000000e+00 0.0000000000e+00
2.7319946255e+00 5.4639892509e+00 2.7319946255e+00
     1      1      2
 1  1  1     5.3350392680e-02
 1  1  2    -3.1977275336e-02
 1  1  3    -5.4878643344e-02
 1  2  1     2.4835245397e-02
 1  2  2    -1.2861955558e-01
 1  2  3    -8.8677713626e-02
 1  3  1    -6.8898852424e-03
 1  3  2    -1.8912562594e-02
 1  3  3    -6.8898852424e-03
 2  1  1     2.4835245397e-02
 2  1  2    -1.2861955558e-01
 2  1  3    -8.8677713626e-02
 2  2  1    -6.5880312026e-02
 2  2  2    -2.6353808432e-01
 2  2  3    -6.5880312026e-02
 2  3  1    -8.8677713626e-02
 2  3  2    -1.2861955558e-01
 2  3  3     2.4835245397e-02
 3  1  1    -6.8898852424e-03
 3  1  2    -1.8912562594e-02
 3  1  3    -6.8898852424e-03
 3  2  1    -8.8677713626e-02
 3  2  2    -1.2861955558e-01
 3  2  3     2.4835245397e-02
 3  3  1    -5.4878643344e-02
 3  3  2    -3.1977275336e-02
 3  3  3     5.3350392680e-02

   17
0.0000000000e+00 0.0000000000e+00 0.0000000000e+00
2.7319946255e+00 1.1827516286e-16 -2.7319946255e+00
     1      1      1
 1  1  1     8.6774735082e-02
 1  1  2    -3.7650151595e-01
 1  1  3    -3.4491113503e-02
 1  2  1     1.5148333927e-01
 1  2  2    -3.9131774196e-02
 1  2  3    -2.2171269417e-01
 1  3  1     5.4653260130e-02
 1  3  2     2.1492962069e-01
 1  3  3    -5.4653260130e-02
 2  1  1     1.5148333927e-01
 2  1  2    -3.9131774196e-02
 2  1  3    -2.2171269417e-01
 2  2  1     6.2791869891e-02
 2  2  2     3.6549471674e-16
 2  2  3    -6.2791869891e-02
 2  3  1    -2.2171269417e-01
 2  3  2     3.9131774196e-02
 2  3  3     1.5148333927e-01
 3  1  1     5.4653260130e-02
 3  1  2     2.1492962069e-01
 3  1  3    -5.4653260130e-02
 3  2  1    -2.2171269417e-01
 3  2  2     3.9131774196e-02
 3  2  3     1.5148333927e-01
 3  3  1     3.4491113503e-02
 3  3  2    -3.7650151595e-01
 3  3  3    -8.6774735082e-02

   18
0.0000000000e+00 0.0000000000e+00 0.0000000000e+00
2.7319946255e+00 6.7338667518e-16 -2.7319946255e+00
     1      1      2
 1  1  1     5.3350392680e-02
 1  1  2     5.4878643344e-02
 1  1  3     3.1977275336e-02
 1  2  1     6.8898852424e-03
 1  2  2    -6.8898852424e-03
 1  2  3    -1.8912562594e-02
 1  3  1    -2.4835245397e-02
 1  3  2    -8.8677713626e-02
 1  3  3    -1.2861955558e-01
 2  1  1     6.8898852424e-03
 2  1  2    -6.8898852424e-03
 2  1  3    -1.8912562594e-02
 2  2  1    -5.4878643344e-02
 2  2  2    -5.3350392680e-02
 2  2  3     3.1977275336e-02
 2  3  1    -8.8677713626e-02
 2  3  2    -2.4835245397e-02
 2  3  3     1.2861955558e-01
 3  1  1    -2.4835245397e-02
 3  1  2    -8.8677713626e-02
 3  1  3    -1.2861955558e-01
 3  2  1    -8.8677713626e-02
 3  2  2    -2.4835245397e-02
 3  2  3     1.2861955558e-01
 3  3  1    -6.5880312026e-02
 3  3  2     6.5880312026e-02
 3  3  3     2.6353808432e-01

   19
0.0000000000e+00 0.0000000000e+00 0.0000000000e+00
5.4639892509e+00 2.7319946255e+00 2.7319946255e+00
     1      1      2
 1  1  1    -2.6353808432e-01
 1  1  2    -6.5880312026e-02
 1  1  3    -6.5880312026e-02
 1  2  1    -1.2861955558e-01
 1  2  2     2.4835245397e-02
 1  2  3    -8.8677713626e-02
 1  3  1    -1.2861955558e-01
 1  3  2    -8.8677713626e-02
 1  3  3     2.4835245397e-02
 2  1  1    -1.2861955558e-01
 2  1  2     2.4835245397e-02
 2  1  3    -8.8677713626e-02
 2  2  1    -3.1977275336e-02
 2  2  2     5.3350392680e-02
 2  2  3    -5.4878643344e-02
 2  3  1    -1.8912562594e-02
 2  3  2    -6.8898852424e-03
 2  3  3    -6.8898852424e-03
 3  1  1    -1.2861955558e-01
 3  1  2    -8.8677713626e-02
 3  1  3     2.4835245397e-02
 3  2  1    -1.8912562594e-02
 3  2  2    -6.8898852424e-03
 3  2  3    -6.8898852424e-03
 3  3  1    -3.1977275336e-02
 3  3  2    -5.4878643344e-02
 3  3  3     5.3350392680e-02

   20
0.0000000000e+00 0.0000000000e+00 0.0000000000e+00
5.4639892509e+00 1.1827516286e-16 0.0000000000e+00
     1      1      1
 1  1  1     6.9419788065e-02
 1  1  2     0.0000000000e+00
 1  1  3     0.0000000000e+00
 1  2  1     0.0000000000e+00
 1  2  2    -1.7054441713e-02
 1  2  3    -9.5234414045e-03
 1  3  1     0.0000000000e+00
 1  3  2    -9.5234414045e-03
 1  3  3    -1.7054441713e-02
 2  1  1     0.0000000000e+00
 2  1  2    -1.7054441713e-02
 2  1  3    -9.5234414045e-03
 2  2  1     4.5910529487e-02
 2  2  2     0.0000000000e+00
 2  2  3     0.0000000000e+00
 2  3  1    -8.2213601039e-03
 2  3  2     0.0000000000e+00
 2  3  3     0.0000000000e+00
 3  1  1     0.0000000000e+00
 3  1  2    -9.5234414045e-03
 3  1  3    -1.7054441713e-02
 3  2  1    -8.2213601039e-03
 3  2  2     0.0000000000e+00
 3  2  3     0.0000000000e+00
 3  3  1     4.5910529487e-02
 3  3  2     0.0000000000e+00
 3  3  3     0.0000000000e+00

   21
0.0000000000e+00 0.0000000000e+00 0.0000000000e+00
5.4639892509e+00 6.7338667518e-16 5.5511151231e-16
     1      1      2
 1  1  1    -2.6353808432e-01
 1  1  2     6.5880312026e-02
 1  1  3     6.5880312026e-02
 1  2  1     1.2861955558e-01
 1  2  2     2.4835245397e-02
 1  2  3    -8.8677713626e-02
 1  3  1     1.2861955558e-01
 1  3  2    -8.8677713626e-02
 1  3  3     2.4835245397e-02
 2  1  1     1.2861955558e-01
 2  1  2     2.4835245397e-02
 2  1  3    -8.8677713626e-02
 2  2  1    -3.1977275336e-02
 2  2  2    -5.3350392680e-02
 2  2  3     5.4878643344e-02
 2  3  1    -1.8912562594e-02
 2  3  2     6.8898852424e-03
 2  3  3     6.8898852424e-03
 3  1  1     1.2861955558e-01
 3  1  2    -8.8677713626e-02
 3  1  3     2.4835245397e-02
 3  2  1    -1.8912562594e-02
 3  2  2     6.8898852424e-03
 3  2  3     6.8898852424e-03
 3  3  1    -3.1977275336e-02
 3  3  2     5.4878643344e-02
 3  3  3    -5.3350392680e-02

   22
0.0000000000e+00 0.0000000000e+00 0.0000000000e+00
0.0000000000e+00 2.7319946255e+00 -2.7319946255e+00
     1      1      1
 1  1  1     3.6549471674e-16
 1  1  2     6.2791869891e-02
 1  1  3    -6.2791869891e-02
 1  2  1    -3.9131774196e-02
 1  2  2     1.5148333927e-01
 1  2  3    -2.2171269417e-01
 1  3  1     3.9131774196e-02
 1  3  2    -2.2171269417e-01
 1  3  3     1.5148333927e-01
 2  1  1    -3.9131774196e-02
 2  1  2     1.5148333927e-01
 2  1  3    -2.2171269417e-01
 2  2  1    -3.7650151595e-01
 2  2  2     8.6774735082e-02
 2  2  3    -3.4491113503e-02
 2  3  1     2.1492962069e-01
 2  3  2     5.4653260130e-02
 2  3  3    -5.4653260130e-02
 3  1  1     3.9131774196e-02
 3  1  2    -2.2171269417e-01
 3  1  3     1.5148333927e-01
 3  2  1     2.1492962069e-01
 3  2  2     5.4653260130e-02
 3  2  3    -5.4653260130e-02
 3  3  1    -3.7650151595e-01
 3  3  2     3.4491113503e-02
 3  3  3    -8.6774735082e-02

   23
0.0000000000e+00 0.0000000000e+00 0.0000000000e+00
5.5511151231e-16 2.7319946255e+00 -2.7319946255e+00
     1      1      2
 1  1  1    -5.3350392680e-02
 1  1  2    -5.4878643344e-02
 1  1  3     3.1977275336e-02
 1  2  1    -6.8898852424e-03
 1  2  2     6.8898852424e-03
 1  2  3    -1.8912562594e-02
 1  3  1    -2.4835245397e-02
 1  3  2    -8.8677713626e-02
 1  3  3     1.2861955558e-01
 2  1  1    -6.8898852424e-03
 2  1  2     6.8898852424e-03
 2  1  3    -1.8912562594e-02
 2  2  1     5.4878643344e-02
 2  2  2     5.3350392680e-02
 2  2  3     3.1977275336e-02
 2  3  1    -8.8677713626e-02
 2  3  2    -2.4835245397e-02
 2  3  3    -1.2861955558e-01
 3  1  1    -2.4835245397e-02
 3  1  2    -8.8677713626e-02
 3  1  3     1.2861955558e-01
 3  2  1    -8.8677713626e-02
 3  2  2    -2.4835245397e-02
 3  2  3    -1.2861955558e-01
 3  3  1     6.5880312026e-02
 3  3  2    -6.5880312026e-02
 3  3  3     2.6353808432e-01

   24
0.0000000000e+00 0.0000000000e+00 0.0000000000e+00
0.0000000000e+00 5.4639892509e+00 0.0000000000e+00
     1      1      1
 1  1  1     0.0000000000e+00
 1  1  2     4.5910529487e-02
 1  1  3     0.0000000000e+00
 1  2  1    -1.7054441713e-02
 1  2  2     0.0000000000e+00
 1  2  3    -9.5234414045e-03
 1  3  1     0.0000000000e+00
 1  3  2    -8.2213601039e-03
 1  3  3     0.0000000000e+00
 2  1  1    -1.7054441713e-02
 2  1  2     0.0000000000e+00
 2  1  3    -9.5234414045e-03
 2  2  1     0.0000000000e+00
 2  2  2     6.9419788065e-02
 2  2  3     0.0000000000e+00
 2  3  1    -9.5234414045e-03
 2  3  2     0.0000000000e+00
 2  3  3    -1.7054441713e-02
 3  1  1     0.0000000000e+00
 3  1  2    -8.2213601039e-03
 3  1  3     0.0000000000e+00
 3  2  1    -9.5234414045e-03
 3  2  2     0.0000000000e+00
 3  2  3    -1.7054441713e-02
 3  3  1     0.0000000000e+00
 3  3  2     4.5910529487e-02
 3  3  3     0.0000000000e+00

   25
0.0000000000e+00 0.0000000000e+00 0.0000000000e+00
5.5511151231e-16 5.4639892509e+00 5.5511151231e-16
     1      1      2
 1  1  1    -5.3350392680e-02
 1  1  2    -3.1977275336e-02
 1  1  3     5.4878643344e-02
 1  2  1     2.4835245397e-02
 1  2  2     1.2861955558e-01
 1  2  3    -8.8677713626e-02
 1  3  1     6.8898852424e-03
 1  3  2    -1.8912562594e-02
 1  3  3     6.8898852424e-03
 2  1  1     2.4835245397e-02
 2  1  2     1.2861955558e-01
 2  1  3    -8.8677713626e-02
 2  2  1     6.5880312026e-02
 2  2  2    -2.6353808432e-01
 2  2  3     6.5880312026e-02
 2  3  1    -8.8677713626e-02
 2  3  2     1.2861955558e-01
 2  3  3     2.4835245397e-02
 3  1  1     6.8898852424e-03
 3  1  2    -1.8912562594e-02
 3  1  3     6.8898852424e-03
 3  2  1    -8.8677713626e-02
 3  2  2     1.2861955558e-01
 3  2  3     2.4835245397e-02
 3  3  1     5.4878643344e-02
 3  3  2    -3.1977275336e-02
 3  3  3    -5.3350392680e-02

   26
0.0000000000e+00 0.0000000000e+00 0.0000000000e+00
0.0000000000e+00 1.1827516286e-16 -5.4639892509e+00
     1      1      1
 1  1  1     0.0000000000e+00
 1  1  2     0.0000000000e+00
 1  1  3    -4.5910529487e-02
 1  2  1     0.0000000000e+00
 1  2  2     0.0000000000e+00
 1  2  3    -8.2213601039e-03
 1  3  1     1.7054441713e-02
 1  3  2    -9.5234414045e-03
 1  3  3     0.0000000000e+00
 2  1  1     0.0000000000e+00
 2  1  2     0.0000000000e+00
 2  1  3    -8.2213601039e-03
 2  2  1     0.0000000000e+00
 2  2  2     0.0000000000e+00
 2  2  3    -4.5910529487e-02
 2  3  1    -9.5234414045e-03
 2  3  2     1.7054441713e-02
 2  3  3     0.0000000000e+00
 3  1  1     1.7054441713e-02
 3  1  2    -9.5234414045e-03
 3  1  3     0.0000000000e+00
 3  2  1    -9.5234414045e-03
 3  2  2     1.7054441713e-02
 3  2  3     0.0000000000e+00
 3  3  1     0.0000000000e+00
 3  3  2     0.0000000000e+00
 3  3  3    -6.9419788065e-02

   27
0.0000000000e+00 0.0000000000e+00 0.0000000000e+00
-2.7319946255e+00 -2.7319946255e+00 0.0000000000e+00
     1      1      1
 1  1  1    -8.6774735082e-02
 1  1  2    -3.4491113503e-02
 1  1  3     3.7650151595e-01
 1  2  1     5.4653260130e-02
 1  2  2     5.4653260130e-02
 1  2  3     2.1492962069e-01
 1  3  1    -1.5148333927e-01
 1  3  2    -2.2171269417e-01
 1  3  3     3.9131774196e-02
 2  1  1     5.4653260130e-02
 2  1  2     5.4653260130e-02
 2  1  3     2.1492962069e-01
 2  2  1    -3.4491113503e-02
 2  2  2    -8.6774735082e-02
 2  2  3     3.7650151595e-01
 2  3  1    -2.2171269417e-01
 2  3  2    -1.5148333927e-01
 2  3  3     3.9131774196e-02
 3  1  1    -1.5148333927e-01
 3  1  2    -2.2171269417e-01
 3  1  3     3.9131774196e-02
 3  2  1    -2.2171269417e-01
 3  2  2    -1.5148333927e-01
 3  2  3     3.9131774196e-02
 3  3  1    -6.2791869891e-02
 3  3  2    -6.2791869891e-02
 3  3  3    -3.6549471674e-16

   28
0.0000000000e+00 0.0000000000e+00 0.0000000000e+00
-2.7319946255e+00 -1.1827516286e-16 2.7319946255e+00
     1      1      1
 1  1  1    -8.6774735082e-02
 1  1  2    -3.7650151595e-01
 1  1  3     3.4491113503e-02
 1  2  1     1.5148333927e-01
 1  2  2     3.9131774196e-02
 1  2  3    -2.2171269417e-01
 1  3  1    -5.4653260130e-02
 1  3  2     2.1492962069e-01
 1  3  3     5.4653260130e-02
 2  1  1     1.5148333927e-01
 2  1  2     3.9131774196e-02
 2  1  3    -2.2171269417e-01
 2  2  1    -6.2791869891e-02
 2  2  2     3.6549471674e-16
 2  2  3     6.2791869891e-02
 2  3  1    -2.2171269417e-01
 2  3  2    -3.9131774196e-02
 2  3  3     1.5148333927e-01
 3  1  1    -5.4653260130e-02
 3  1  2     2.1492962069e-01
 3  1  3     5.4653260130e-02
 3  2  1    -2.2171269417e-01
 3  2  2    -3.9131774196e-02
 3  2  3     1.5148333927e-01
 3  3  1    -3.4491113503e-02
 3  3  2    -3.7650151595e-01
 3  3  3     8.6774735082e-02

   29
0.0000000000e+00 0.0000000000e+00 0.0000000000e+00
-2.7319946255e+00 7.9166183804e-16 2.7319946255e+00
     1      1      2
 1  1  1     2.6353808432e-01
 1  1  2     6.5880312026e-02
 1  1  3    -6.5880312026e-02
 1  2  1     1.2861955558e-01
 1  2  2    -2.4835245397e-02
 1  2  3    -8.8677713626e-02
 1  3  1    -1.2861955558e-01
 1  3  2    -8.8677713626e-02
 1  3  3    -2.4835245397e-02
 2  1  1     1.2861955558e-01
 2  1  2    -2.4835245397e-02
 2  1  3    -8.8677713626e-02
 2  2  1     3.1977275336e-02
 2  2  2    -5.3350392680e-02
 2  2  3    -5.4878643344e-02
 2  3  1    -1.8912562594e-02
 2  3  2    -6.8898852424e-03
 2  3  3     6.8898852424e-03
 3  1  1    -1.2861955558e-01
 3  1  2    -8.8677713626e-02
 3  1  3    -2.4835245397e-02
 3  2  1    -1.8912562594e-02
 3  2  2    -6.8898852424e-03
 3  2  3     6.8898852424e-03
 3  3  1     3.1977275336e-02
 3  3  2     5.4878643344e-02
 3  3  3     5.3350392680e-02

   30
0.0000000000e+00 0.0000000000e+00 0.0000000000e+00
0.0000000000e+00 -2.7319946255e+00 2.7319946255e+00
     1      1      1
 1  1  1     3.6549471674e-16
 1  1  2    -6.2791869891e-02
 1  1  3     6.2791869891e-02
 1  2  1     3.9131774196e-02
 1  2  2     1.5148333927e-01
 1  2  3    -2.2171269417e-01
 1  3  1    -3.9131774196e-02
 1  3  2    -2.2171269417e-01
 1  3  3     1.5148333927e-01
 2  1  1     3.9131774196e-02
 2  1  2     1.5148333927e-01
 2  1  3    -2.2171269417e-01
 2  2  1    -3.7650151595e-01
 2  2  2    -8.6774735082e-02
 2  2  3     3.4491113503e-02
 2  3  1     2.1492962069e-01
 2  3  2    -5.4653260130e-02
 2  3  3     5.4653260130e-02
 3  1  1    -3.9131774196e-02
 3  1  2    -2.2171269417e-01
 3  1  3     1.5148333927e-01
 3  2  1     2.1492962069e-01
 3  2  2    -5.4653260130e-02
 3  2  3     5.4653260130e-02
 3  3  1    -3.7650151595e-01
 3  3  2    -3.4491113503e-02
 3  3  3     8.6774735082e-02

   31
0.0000000000e+00 0.0000000000e+00 0.0000000000e+00
5.5511151231e-16 -2.7319946255e+00 2.7319946255e+00
     1      1      2
 1  1  1    -5.3350392680e-02
 1  1  2     3.1977275336e-02
 1  1  3    -5.4878643344e-02
 1  2  1    -2.4835245397e-02
 1  2  2     1.2861955558e-01
 1  2  3    -8.8677713626e-02
 1  3  1    -6.8898852424e-03
 1  3  2    -1.8912562594e-02
 1  3  3     6.8898852424e-03
 2  1  1    -2.4835245397e-02
 2  1  2     1.2861955558e-01
 2  1  3    -8.8677713626e-02
 2  2  1     6.5880312026e-02
 2  2  2     2.6353808432e-01
 2  2  3    -6.5880312026e-02
 2  3  1    -8.8677713626e-02
 2  3  2    -1.2861955558e-01
 2  3  3    -2.4835245397e-02
 3  1  1    -6.8898852424e-03
 3  1  2    -1.8912562594e-02
 3  1  3     6.8898852424e-03
 3  2  1    -8.8677713626e-02
 3  2  2    -1.2861955558e-01
 3  2  3    -2.4835245397e-02
 3  3  1     5.4878643344e-02
 3  3  2     3.1977275336e-02
 3  3  3     5.3350392680e-02

   32
0.0000000000e+00 0.0000000000e+00 0.0000000000e+00
0.0000000000e+00 -1.1827516286e-16 5.4639892509e+00
     1      1      1
 1  1  1     0.0000000000e+00
 1  1  2     0.0000000000e+00
 1  1  3     4.5910529487e-02
 1  2  1     0.0000000000e+00
 1  2  2     0.0000000000e+00
 1  2  3    -8.2213601039e-03
 1  3  1    -1.7054441713e-02
 1  3  2    -9.5234414045e-03
 1  3  3     0.0000000000e+00
 2  1  1     0.0000000000e+00
 2  1  2     0.0000000000e+00
 2  1  3    -8.2213601039e-03
 2  2  1     0.0000000000e+00
 2  2  2     0.0000000000e+00
 2  2  3     4.5910529487e-02
 2  3  1    -9.5234414045e-03
 2  3  2    -1.7054441713e-02
 2  3  3     0.0000000000e+00
 3  1  1    -1.7054441713e-02
 3  1  2    -9.5234414045e-03
 3  1  3     0.0000000000e+00
 3  2  1    -9.5234414045e-03
 3  2  2    -1.7054441713e-02