  842

    1
0.0000000000e+00 0.0000000000e+00 0.0000000000e+00
0.0000000000e+00 0.0000000000e+00 0.0000000000e+00
     1      1      1
 1  1  1     0.0000000000e+00
 1  1  2     0.0000000000e+00
 1  1  3     0.0000000000e+00
 1  2  1     0.0000000000e+00
 1  2  2     0.0000000000e+00
 1  2  3     3.5767700033e+01
 1  3  1     0.0000000000e+00
 1  3  2     3.5767700033e+01
 1  3  3     0.0000000000e+00
 2  1  1     0.0000000000e+00
 2  1  2     0.0000000000e+00
 2  1  3     3.5767700033e+01
 2  2  1     0.0000000000e+00
 2  2  2     0.0000000000e+00
 2  2  3     0.0000000000e+00
 2  3  1     3.5767700033e+01
 2  3  2     0.0000000000e+00
 2  3  3     0.0000000000e+00
 3  1  1     0.0000000000e+00
 3  1  2     3.5767700033e+01
 3  1  3     0.0000000000e+00
 3  2  1     3.5767700033e+01
 3  2  2     0.0000000000e+00
 3  2  3     0.0000000000e+00
 3  3  1     0.0000000000e+00
 3  3  2     0.0000000000e+00
 3  3  3     0.0000000000e+00

    2
0.0000000000e+00 0.0000000000e+00 0.0000000000e+00
0.0000000000e+00 0.0000000000e+00 0.0000000000e+00
     1      1      2
 1  1  1     0.0000000000e+00
 1  1  2     0.0000000000e+00
 1  1  3     0.0000000000e+00
 1  2  1     3.8252260788e-01
 1  2  2     3.8252260788e-01
 1  2  3    -9.9238725516e+00
 1  3  1     3.8252260788e-01
 1  3  2    -9.9238725516e+00
 1  3  3     3.8252260788e-01
 2  1  1     3.8252260788e-01
 2  1  2     3.8252260788e-01
 2  1  3    -9.9238725516e+00
 2  2  1     0.0000000000e+00
 2  2  2     0.0000000000e+00
 2  2  3     0.0000000000e+00
 2  3  1    -9.9238725516e+00
 2  3  2     3.8252260788e-01
 2  3  3     3.8252260788e-01
 3  1  1     3.8252260788e-01
 3  1  2    -9.9238725516e+00
 3  1  3     3.8252260788e-01
 3  2  1    -9.9238725516e+00
 3  2  2     3.8252260788e-01
 3  2  3     3.8252260788e-01
 3  3  1     0.0000000000e+00
 3  3  2     0.0000000000e+00
 3  3  3     0.0000000000e+00

    3
0.0000000000e+00 0.0000000000e+00 0.0000000000e+00
-2.1897501157e+00 0.0000000000e+00 2.1897501157e+00
     1      1      1
 1  1  1     0.0000000000e+00
 1  1  2     0.0000000000e+00
 1  1  3     0.0000000000e+00
 1  2  1     3.1989143374e-01
 1  2  2    -3.6435905872e-01
 1  2  3     3.4990998452e-01
 1  3  1    -3.7586731851e-02
 1  3  2     8.3309551547e-02
 1  3  3     3.7586731851e-02
 2  1  1     3.1989143374e-01
 2  1  2    -3.6435905872e-01
 2  1  3     3.4990998452e-01
 2  2  1    -9.2355939639e-01
 2  2  2     5.8223079881e-01
 2  2  3     9.2355939639e-01
 2  3  1     3.4990998452e-01
 2  3  2     3.6435905872e-01
 2  3  3     3.1989143374e-01
 3  1  1    -3.7586731851e-02
 3  1  2     8.3309551547e-02
 3  1  3     3.7586731851e-02
 3  2  1     3.4990998452e-01
 3  2  2     3.6435905872e-01
 3  2  3     3.1989143374e-01
 3  3  1     0.0000000000e+00
 3  3  2     0.0000000000e+00
 3  3  3     0.0000000000e+00

    4
0.0000000000e+00 0.0000000000e+00 0.0000000000e+00
-2.1897501157e+00 0.0000000000e+00 2.1897501157e+00
     1      1      2
 1  1  1    -8.9826328964e-02
 1  1  2     1.0341427821e-01
 1  1  3     9.8879191252e-02
 1  2  1    -3.1889842292e-01
 1  2  2     3.1889842292e-01
 1  2  3     1.1466681172e-01
 1  3  1    -7.5265436006e-02
 1  3  2     4.2052340899e-02
 1  3  3     2.5019345849e-02
 2  1  1    -3.1889842292e-01
 2  1  2     3.1889842292e-01
 2  1  3     1.1466681172e-01
 2  2  1    -1.0341427821e-01
 2  2  2     8.9826328964e-02
 2  2  3     9.8879191252e-02
 2  3  1     4.2052340899e-02
 2  3  2    -7.5265436006e-02
 2  3  3    -2.5019345849e-02
 3  1  1    -7.5265436006e-02
 3  1  2     4.2052340899e-02
 3  1  3     2.5019345849e-02
 3  2  1     4.2052340899e-02
 3  2  2    -7.5265436006e-02
 3  2  3    -2.5019345849e-02
 3  3  1     0.0000000000e+00
 3  3  2     0.0000000000e+00
 3  3  3     0.0000000000e+00

    5
0.0000000000e+00 0.0000000000e+00 0.0000000000e+00
2.1897501157e+00 0.0000000000e+00 -2.1897501157e+00
     1      1      1
 1  1  1     0.0000000000e+00
 1  1  2     0.0000000000e+00
 1  1  3     0.0000000000e+00
 1  2  1     3.1989143374e-01
 1  2  2     3.6435905872e-01
 1  2  3     3.4990998452e-01
 1  3  1     3.7586731851e-02
 1  3  2     8.3309551547e-02
 1  3  3    -3.7586731851e-02
 2  1  1     3.1989143374e-01
 2  1  2     3.6435905872e-01
 2  1  3     3.4990998452e-01
 2  2  1     9.2355939639e-01
 2  2  2     5.8223079881e-01
 2  2  3    -9.2355939639e-01
 2  3  1     3.4990998452e-01
 2  3  2    -3.6435905872e-01
 2  3  3     3.1989143374e-01
 3  1  1     3.7586731851e-02
 3  1  2     8.3309551547e-02
 3  1  3    -3.7586731851e-02
 3  2  1     3.4990998452e-01
 3  2  2    -3.6435905872e-01
 3  2  3     3.1989143374e-01
 3  3  1     0.0000000000e+00
 3  3  2     0.0000000000e+00
 3  3  3     0.0000000000e+00

    6
0.0000000000e+00 0.0000000000e+00 0.0000000000e+00
2.1897501157e+00 0.0000000000e+00 -2.1897501157e+00
     1      1      2
 1  1  1     0.0000000000e+00
 1  1  2     0.0000000000e+00
 1  1  3     0.0000000000e+00
 1  2  1    -2.5019345849e-02
 1  2  2    -7.5265436006e-02
 1  2  3     4.2052340899e-02
 1  3  1     2.5019345849e-02
 1  3  2     4.2052340899e-02
 1  3  3    -7.5265436006e-02
 2  1  1    -2.5019345849e-02
 2  1  2    -7.5265436006e-02
 2  1  3     4.2052340899e-02
 2  2  1     9.8879191252e-02
 2  2  2     8.9826328964e-02
 2  2  3    -1.0341427821e-01
 2  3  1     1.1466681172e-01
 2  3  2     3.1889842292e-01
 2  3  3    -3.1889842292e-01
 3  1  1     2.5019345849e-02
 3  1  2     4.2052340899e-02
 3  1  3    -7.5265436006e-02
 3  2  1     1.1466681172e-01
 3  2  2     3.1889842292e-01
 3  2  3    -3.1889842292e-01
 3  3  1     9.8879191252e-02
 3  3  2     1.0341427821e-01
 3  3  3    -8.9826328964e-02

    7
0.0000000000e+00 0.0000000000e+00 0.0000000000e+00
0.0000000000e+00 2.1897501157e+00 2.1897501157e+00
     1      1      1
 1  1  1    -5.8223079881e-01
 1  1  2     9.2355939639e-01
 1  1  3     9.2355939639e-01
 1  2  1     3.6435905872e-01
 1  2  2    -3.1989143374e-01
 1  2  3     3.4990998452e-01
 1  3  1     3.6435905872e-01
 1  3  2     3.4990998452e-01
 1  3  3    -3.1989143374e-01
 2  1  1     3.6435905872e-01
 2  1  2    -3.1989143374e-01
 2  1  3     3.4990998452e-01
 2  2  1     0.0000000000e+00
 2  2  2     0.0000000000e+00
 2  2  3     0.0000000000e+00
 2  3  1     8.3309551547e-02
 2  3  2    -3.7586731851e-02
 2  3  3    -3.7586731851e-02
 3  1  1     3.6435905872e-01
 3  1  2     3.4990998452e-01
 3  1  3    -3.1989143374e-01
 3  2  1     8.3309551547e-02
 3  2  2    -3.7586731851e-02
 3  2  3    -3.7586731851e-02
 3  3  1     0.0000000000e+00
 3  3  2     0.0000000000e+00
 3  3  3     0.0000000000e+00

    8
0.0000000000e+00 0.0000000000e+00 0.0000000000e+00
2.1897501157e+00 2.1897501157e+00 0.0000000000e+00
     1      1      1
 1  1  1     0.0000000000e+00
 1  1  2     0.0000000000e+00
 1  1  3     0.0000000000e+00
 1  2  1    -3.7586731851e-02
 1  2  2    -3.7586731851e-02
 1  2  3     8.3309551547e-02
 1  3  1    -3.1989143374e-01
 1  3  2     3.4990998452e-01
 1  3  3     3.6435905872e-01
 2  1  1    -3.7586731851e-02
 2  1  2    -3.7586731851e-02
 2  1  3     8.3309551547e-02
 2  2  1     0.0000000000e+00
 2  2  2     0.0000000000e+00
 2  2  3     0.0000000000e+00
 2  3  1     3.4990998452e-01
 2  3  2    -3.1989143374e-01
 2  3  3     3.6435905872e-01
 3  1  1    -3.1989143374e-01
 3  1  2     3.4990998452e-01
 3  1  3     3.6435905872e-01
 3  2  1     3.4990998452e-01
 3  2  2    -3.1989143374e-01
 3  2  3     3.6435905872e-01
 3  3  1     9.2355939639e-01
 3  3  2     9.2355939639e-01
 3  3  3    -5.8223079881e-01

    9
0.0000000000e+00 0.0000000000e+00 0.0000000000e+00
-2.1897501157e+00 -4.3795002315e+00 -2.1897501157e+00
     1      1      2
 1  1  1    -8.9826328964e-02
 1  1  2    -9.8879191252e-02
 1  1  3    -1.0341427821e-01
 1  2  1     7.5265436006e-02
 1  2  2     2.5019345849e-02
 1  2  3     4.2052340899e-02
 1  3  1     3.1889842292e-01
 1  3  2     1.1466681172e-01
 1  3  3     3.1889842292e-01
 2  1  1     7.5265436006e-02
 2  1  2     2.5019345849e-02
 2  1  3     4.2052340899e-02
 2  2  1     0.0000000000e+00
 2  2  2     0.0000000000e+00
 2  2  3     0.0000000000e+00
 2  3  1     4.2052340899e-02
 2  3  2     2.5019345849e-02
 2  3  3     7.5265436006e-02
 3  1  1     3.1889842292e-01
 3  1  2     1.1466681172e-01
 3  1  3     3.1889842292e-01
 3  2  1     4.2052340899e-02
 3  2  2     2.5019345849e-02
 3  2  3     7.5265436006e-02
 3  3  1    -1.0341427821e-01
 3  3  2    -9.8879191252e-02
 3  3  3    -8.9826328964e-02

   10
0.0000000000e+00 0.0000000000e+00 0.0000000000e+00
0.0000000000e+00 -2.1897501157e+00 -2.1897501157e+00
     1      1      1
 1  1  1    -5.8223079881e-01
 1  1  2    -9.2355939639e-01
 1  1  3    -9.2355939639e-01
 1  2  1    -3.6435905872e-01
 1  2  2    -3.1989143374e-01
 1  2  3     3.4990998452e-01
 1  3  1    -3.6435905872e-01
 1  3  2     3.4990998452e-01
 1  3  3    -3.1989143374e-01
 2  1  1    -3.6435905872e-01
 2  1  2    -3.1989143374e-01
 2  1  3     3.4990998452e-01
 2  2  1     0.0000000000e+00
 2  2  2     0.0000000000e+00
 2  2  3     0.0000000000e+00
 2  3  1     8.3309551547e-02
 2  3  2     3.7586731851e-02
 2  3  3     3.7586731851e-02
 3  1  1    -3.6435905872e-01
 3  1  2     3.4990998452e-01
 3  1  3    -3.1989143374e-01
 3  2  1     8.3309551547e-02
 3  2  2     3.7586731851e-02
 3  2  3     3.7586731851e-02
 3  3  1     0.0000000000e+00
 3  3  2     0.0000000000e+00
 3  3  3     0.0000000000e+00

   11
0.0000000000e+00 0.0000000000e+00 0.0000000000e+00
0.0000000000e+00 -2.1897501157e+00 -2.1897501157e+00
     1      1      2
 1  1  1     0.0000000000e+00
 1  1  2     0.0000000000e+00
 1  1  3     0.0000000000e+00
 1  2  1    -3.8252260788e-01
 1  2  2     3.8252260788e-01
 1  2  3    -9.9238725516e+00
 1  3  1    -3.8252260788e-01
 1  3  2    -9.9238725516e+00
 1  3  3     3.8252260788e-01
 2  1  1    -3.8252260788e-01
 2  1  2     3.8252260788e-01
 2  1  3    -9.9238725516e+00
 2  2  1     0.0000000000e+00
 2  2  2     0.0000000000e+00
 2  2  3     0.0000000000e+00
 2  3  1    -9.9238725516e+00
 2  3  2    -3.8252260788e-01
 2  3  3    -3.8252260788e-01
 3  1  1    -3.8252260788e-01
 3  1  2    -9.9238725516e+00
 3  1  3     3.8252260788e-01
 3  2  1    -9.9238725516e+00
 3  2  2    -3.8252260788e-01
 3  2  3    -3.8252260788e-01
 3  3  1     0.0000000000e+00
 3  3  2     0.0000000000e+00
 3  3  3     0.0000000000e+00

   12
0.0000000000e+00 0.0000000000e+00 0.0000000000e+00
-2.1897501157e+00 -2.1897501157e+00 0.0000000000e+00
     1      1      1
 1  1  1     0.0000000000e+00
 1  1  2     0.0000000000e+00
 1  1  3     0.0000000000e+00
 1  2  1     3.7586731851e-02
 1  2  2     3.7586731851e-02
 1  2  3     8.3309551547e-02
 1  3  1    -3.1989143374e-01
 1  3  2     3.4990998452e-01
 1  3  3    -3.6435905872e-01
 2  1  1     3.7586731851e-02
 2  1  2     3.7586731851e-02
 2  1  3     8.3309551547e-02
 2  2  1     0.0000000000e+00
 2  2  2     0.0000000000e+00
 2  2  3     0.0000000000e+00
 2  3  1     3.4990998452e-01
 2  3  2    -3.1989143374e-01
 2  3  3    -3.6435905872e-01
 3  1  1    -3.1989143374e-01
 3  1  2     3.4990998452e-01
 3  1  3    -3.6435905872e-01
 3  2  1     3.4990998452e-01
 3  2  2    -3.1989143374e-01
 3  2  3    -3.6435905872e-01
 3  3  1    -9.2355939639e-01
 3  3  2    -9.2355939639e-01
 3  3  3    -5.8223079881e-01

   13
0.0000000000e+00 0.0000000000e+00 0.0000000000e+00
-2.1897501157e+00 -2.1897501157e+00 0.0000000000e+00
     1      1      2
 1  1  1     0.0000000000e+00
 1  1  2     0.0000000000e+00
 1  1  3     0.0000000000e+00
 1  2  1    -3.8252260788e-01
 1  2  2    -3.8252260788e-01
 1  2  3    -9.9238725516e+00
 1  3  1     3.8252260788e-01
 1  3  2    -9.9238725516e+00
 1  3  3    -3.8252260788e-01
 2  1  1    -3.8252260788e-01
 2  1  2    -3.8252260788e-01
 2  1  3    -9.9238725516e+00
 2  2  1     0.0000000000e+00
 2  2  2     0.0000000000e+00
 2  2  3     0.0000000000e+00
 2  3  1    -9.9238725516e+00
 2  3  2     3.8252260788e-01
 2  3  3    -3.8252260788e-01
 3  1  1     3.8252260788e-01
 3  1  2    -9.9238725516e+00
 3  1  3    -3.8252260788e-01
 3  2  1    -9.9238725516e+00
 3  2  2     3.8252260788e-01
 3  2  3    -3.8252260788e-01
 3  3  1     0.0000000000e+00
 3  3  2     0.0000000000e+00
 3  3  3     0.0000000000e+00

   14
0.0000000000e+00 0.0000000000e+00 0.0000000000e+00
-2.1897501157e+00 2.1897501157e+00 0.0000000000e+00
     1      1      1
 1  1  1     0.0000000000e+00
 1  1  2     0.0000000000e+00
 1  1  3     0.0000000000e+00
 1  2  1    -3.7586731851e-02
 1  2  2     3.7586731851e-02
 1  2  3     8.3309551547e-02
 1  3  1     3.1989143374e-01
 1  3  2     3.4990998452e-01
 1  3  3    -3.6435905872e-01
 2  1  1    -3.7586731851e-02
 2  1  2     3.7586731851e-02
 2  1  3     8.3309551547e-02
 2  2  1     0.0000000000e+00
 2  2  2     0.0000000000e+00
 2  2  3     0.0000000000e+00
 2  3  1     3.4990998452e-01
 2  3  2     3.1989143374e-01
 2  3  3     3.6435905872e-01
 3  1  1     3.1989143374e-01
 3  1  2     3.4990998452e-01
 3  1  3    -3.6435905872e-01
 3  2  1     3.4990998452e-01
 3  2  2     3.1989143374e-01
 3  2  3     3.6435905872e-01
 3  3  1    -9.2355939639e-01
 3  3  2     9.2355939639e-01
 3  3  3     5.8223079881e-01

   15
0.0000000000e+00 0.0000000000e+00 0.0000000000e+00
-2.1897501157e+00 2.1897501157e+00 0.0000000000e+00
     1      1      2
 1  1  1    -8.9826328964e-02
 1  1  2     9.8879191252e-02
 1  1  3     1.0341427821e-01
 1  2  1    -7.5265436006e-02
 1  2  2     2.5019345849e-02
 1  2  3     4.2052340899e-02
 1  3  1    -3.1889842292e-01
 1  3  2     1.1466681172e-01
 1  3  3     3.1889842292e-01
 2  1  1    -7.5265436006e-02
 2  1  2     2.5019345849e-02
 2  1  3     4.2052340899e-02
 2  2  1     0.0000000000e+00
 2  2  2     0.0000000000e+00
 2  2  3     0.0000000000e+00
 2  3  1     4.2052340899e-02
 2  3  2    -2.5019345849e-02
 2  3  3    -7.5265436006e-02
 3  1  1    -3.1889842292e-01
 3  1  2     1.1466681172e-01
 3  1  3     3.1889842292e-01
 3  2  1     4.2052340899e-02
 3  2  2    -2.5019345849e-02
 3  2  3    -7.5265436006e-02
 3  3  1    -1.0341427821e-01
 3  3  2     9.8879191252e-02
 3  3  3     8.9826328964e-02

   16
0.0000000000e+00 0.0000000000e+00 0.0000000000e+00
0.0000000000e+00 2.1897501157e+00 -2.1897501157e+00
     1      1      1
 1  1  1     5.8223079881e-01
 1  1  2     9.2355939639e-01
 1  1  3    -9.2355939639e-01
 1  2  1     3.6435905872e-01
 1  2  2     3.1989143374e-01
 1  2  3     3.4990998452e-01
 1  3  1    -3.6435905872e-01
 1  3  2     3.4990998452e-01
 1  3  3     3.1989143374e-01
 2  1  1     3.6435905872e-01
 2  1  2     3.1989143374e-01
 2  1  3     3.4990998452e-01
 2  2  1     0.0000000000e+00
 2  2  2     0.0000000000e+00
 2  2  3     0.0000000000e+00
 2  3  1     8.3309551547e-02
 2  3  2     3.7586731851e-02
 2  3  3    -3.7586731851e-02
 3  1  1    -3.6435905872e-01
 3  1  2     3.4990998452e-01
 3  1  3     3.1989143374e-01
 3  2  1     8.3309551547e-02
 3  2  2     3.7586731851e-02
 3  2  3    -3.7586731851e-02
 3  3  1     0.0000000000e+00
 3  3  2     0.0000000000e+00
 3  3  3     0.0000000000e+00

   17
0.0000000000e+00 0.0000000000e+00 0.0000000000e+00
0.0000000000e+00 2.1897501157e+00 -2.1897501157e+00
     1      1      2
 1  1  1     8.9826328964e-02
 1  1  2     9.8879191252e-02
 1  1  3    -1.0341427821e-01
 1  2  1    -7.5265436006e-02
 1  2  2    -2.5019345849e-02
 1  2  3     4.2052340899e-02
 1  3  1     3.1889842292e-01
 1  3  2     1.1466681172e-01
 1  3  3    -3.1889842292e-01
 2  1  1    -7.5265436006e-02
 2  1  2    -2.5019345849e-02
 2  1  3     4.2052340899e-02
 2  2  1     0.0000000000e+00
 2  2  2     0.0000000000e+00
 2  2  3     0.0000000000e+00
 2  3  1     4.2052340899e-02
 2  3  2     2.5019345849e-02
 2  3  3    -7.5265436006e-02
 3  1  1     3.1889842292e-01
 3  1  2     1.1466681172e-01
 3  1  3    -3.1889842292e-01
 3  2  1     4.2052340899e-02
 3  2  2     2.5019345849e-02
 3  2  3    -7.5265436006e-02
 3  3  1     1.0341427821e-01
 3  3  2     9.8879191252e-02
 3  3  3    -8.9826328964e-02

   18
0.0000000000e+00 0.0000000000e+00 0.0000000000e+00
-2.1897501157e+00 -2.1897501157e+00 -4.3795002315e+00
     1      1      2
 1  1  1    -8.9826328964e-02
 1  1  2    -1.0341427821e-01
 1  1  3    -9.8879191252e-02
 1  2  1     3.1889842292e-01
 1  2  2     3.1889842292e-01
 1  2  3     1.1466681172e-01
 1  3  1     7.5265436006e-02
 1  3  2     4.2052340899e-02
 1  3  3     2.5019345849e-02
 2  1  1     3.1889842292e-01
 2  1  2     3.1889842292e-01
 2  1  3     1.1466681172e-01
 2  2  1    -1.0341427821e-01
 2  2  2    -8.9826328964e-02
 2  2  3    -9.8879191252e-02
 2  3  1     4.2052340899e-02
 2  3  2     7.5265436006e-02
 2  3  3     2.5019345849e-02
 3  1  1     7.5265436006e-02
 3  1  2     4.2052340899e-02
 3  1  3     2.5019345849e-02
 3  2  1     4.2052340899e-02
 3  2  2     7.5265436006e-02
 3  2  3     2.5019345849e-02
 3  3  1     0.0000000000e+00
 3  3  2     0.0000000000e+00
 3  3  3     0.0000000000e+00

   19
0.0000000000e+00 0.0000000000e+00 0.0000000000e+00
-4.3795002315e+00 -2.1897501157e+00 -2.1897501157e+00
     1      1      2
 1  1  1     0.0000000000e+00
 1  1  2     0.0000000000e+00
 1  1  3     0.0000000000e+00
 1  2  1     2.5019345849e-02
 1  2  2     7.5265436006e-02
 1  2  3     4.2052340899e-02
 1  3  1     2.5019345849e-02
 1  3  2     4.2052340899e-02
 1  3  3     7.5265436006e-02
 2  1  1     2.5019345849e-02
 2  1  2     7.5265436006e-02
 2  1  3     4.2052340899e-02
 2  2  1    -9.8879191252e-02
 2  2  2    -8.9826328964e-02
 2  2  3    -1.0341427821e-01
 2  3  1     1.1466681172e-01
 2  3  2     3.1889842292e-01
 2  3  3     3.1889842292e-01
 3  1  1     2.5019345849e-02
 3  1  2     4.2052340899e-02
 3  1  3     7.5265436006e-02
 3  2  1     1.1466681172e-01
 3  2  2     3.1889842292e-01
 3  2  3     3.1889842292e-01
 3  3  1    -9.8879191252e-02
 3  3  2    -1.0341427821e-01
 3  3  3    -8.9826328964e-02

   20
0.0000000000e+00 0.0000000000e+00 0.0000000000e+00
-2.1897501157e+00 0.0000000000e+00 -2.1897501157e+00
     1      1      1
 1  1  1     0.0000000000e+00
 1  1  2     0.0000000000e+00
 1  1  3     0.0000000000e+00
 1  2  1    -3.1989143374e-01
 1  2  2    -3.6435905872e-01
 1  2  3     3.4990998452e-01
 1  3  1     3.7586731851e-02
 1  3  2     8.3309551547e-02
 1  3  3     3.7586731851e-02
 2  1  1    -3.1989143374e-01
 2  1  2    -3.6435905872e-01
 2  1  3     3.4990998452e-01
 2  2  1    -9.2355939639e-01
 2  2  2    -5.8223079881e-01
 2  2  3    -9.2355939639e-01
 2  3  1     3.4990998452e-01
 2  3  2    -3.6435905872e-01
 2  3  3    -3.1989143374e-01
 3  1  1     3.7586731851e-02
 3  1  2     8.3309551547e-02
 3  1  3     3.7586731851e-02
 3  2  1     3.4990998452e-01
 3  2  2    -3.6435905872e-01
 3  2  3    -3.1989143374e-01
 3  3  1     0.0000000000e+00
 3  3  2     0.0000000000e+00
 3  3  3     0.0000000000e+00

   21
0.0000000000e+00 0.0000000000e+00 0.0000000000e+00
-2.1897501157e+00 0.0000000000e+00 -2.1897501157e+00
     1      1      2
 1  1  1     0.0000000000e+00
 1  1  2     0.0000000000e+00
 1  1  3     0.0000000000e+00
 1  2  1     3.8252260788e-01
 1  2  2    -3.8252260788e-01
 1  2  3    -9.9238725516e+00
 1  3  1    -3.8252260788e-01
 1  3  2    -9.9238725516e+00
 1  3  3    -3.8252260788e-01
 2  1  1     3.8252260788e-01
 2  1  2    -3.8252260788e-01
 2  1  3    -9.9238725516e+00
 2  2  1     0.0000000000e+00
 2  2  2     0.0000000000e+00
 2  2  3     0.0000000000e+00
 2  3  1    -9.9238725516e+00
 2  3  2    -3.8252260788e-01
 2  3  3     3.8252260788e-01
 3  1  1    -3.8252260788e-01
 3  1  2    -9.9238725516e+00
 3  1  3    -3.8252260788e-01
 3  2  1    -9.9238725516e+00
 3  2  2    -3.8252260788e-01
 3  2  3     3.8252260788e-01
 3  3  1     0.0000000000e+00
 3  3  2     0.0000000000e+00
 3  3  3     0.0000000000e+00

   22
0.0000000000e+00 0.0000000000e+00 0.0000000000e+00
-4.3795002315e+00 0.0000000000e+00 0.0000000000e+00
     1      1      2
 1  1  1     0.0000000000e+00
 1  1  2     0.0000000000e+00
 1  1  3     0.0000000000e+00
 1  2  1    -2.5019345849e-02
 1  2  2     7.5265436006e-02
 1  2  3     4.2052340899e-02
 1  3  1    -2.5019345849e-02
 1  3  2     4.2052340899e-02
 1  3  3     7.5265436006e-02
 2  1  1    -2.5019345849e-02
 2  1  2     7.5265436006e-02
 2  1  3     4.2052340899e-02
 2  2  1    -9.8879191252e-02
 2  2  2     8.9826328964e-02
 2  2  3     1.0341427821e-01
 2  3  1     1.1466681172e-01
 2  3  2    -3.1889842292e-01
 2  3  3    -3.1889842292e-01
 3  1  1    -2.5019345849e-02
 3  1  2     4.2052340899e-02
 3  1  3     7.5265436006e-02
 3  2  1     1.1466681172e-01
 3  2  2    -3.1889842292e-01
 3  2  3    -3.1889842292e-01
 3  3  1    -9.8879191252e-02
 3  3  2     1.0341427821e-01
 3  3  3     8.9826328964e-02

   23
0.0000000000e+00 0.0000000000e+00 0.0000000000e+00
0.0000000000e+00 0.0000000000e+00 -4.3795002315e+00
     1      1      2
 1  1  1     8.9826328964e-02
 1  1  2     1.0341427821e-01
 1  1  3    -9.8879191252e-02
 1  2  1    -3.1889842292e-01
 1  2  2    -3.1889842292e-01
 1  2  3     1.1466681172e-01
 1  3  1     7.5265436006e-02
 1  3  2     4.2052340899e-02
 1  3  3    -2.5019345849e-02
 2  1  1    -3.1889842292e-01
 2  1  2    -3.1889842292e-01
 2  1  3     1.1466681172e-01
 2  2  1     1.0341427821e-01
 2  2  2     8.9826328964e-02
 2  2  3    -9.8879191252e-02
 2  3  1     4.2052340899e-02
 2  3  2     7.5265436006e-02
 2  3  3    -2.5019345849e-02
 3  1  1     7.5265436006e-02
 3  1  2     4.2052340899e-02
 3  1  3    -2.5019345849e-02
 3  2  1     4.2052340899e-02
 3  2  2     7.5265436006e-02
 3  2  3    -2.5019345849e-02
 3  3  1     0.0000000000e+00
 3  3  2     0.0000000000e+00
 3  3  3     0.0000000000e+00

   24
0.0000000000e+00 0.0000000000e+00 0.0000000000e+00
2.1897501157e+00 -2.1897501157e+00 0.0000000000e+00
     1      1      1
 1  1  1     0.0000000000e+00
 1  1  2     0.0000000000e+00
 1  1  3     0.0000000000e+00
 1  2  1     3.7586731851e-02
 1  2  2    -3.7586731851e-02
 1  2  3     8.3309551547e-02
 1  3  1     3.1989143374e-01
 1  3  2     3.4990998452e-01
 1  3  3     3.6435905872e-01
 2  1  1     3.7586731851e-02
 2  1  2    -3.7586731851e-02
 2  1  3     8.3309551547e-02
 2  2  1     0.0000000000e+00
 2  2  2     0.0000000000e+00
 2  2  3     0.0000000000e+00
 2  3  1     3.4990998452e-01
 2  3  2     3.1989143374e-01
 2  3  3    -3.6435905872e-01
 3  1  1     3.1989143374e-01
 3  1  2     3.4990998452e-01
 3  1  3     3.6435905872e-01
 3  2  1     3.4990998452e-01
 3  2  2     3.1989143374e-01
 3  2  3    -3.6435905872e-01
 3  3  1     9.2355939639e-01
 3  3  2    -9.2355939639e-01
 3  3  3     5.8223079881e-01

   25
0.0000000000e+00 0.0000000000e+00 0.0000000000e+00
2.1897501157e+00 -2.1897501157e+00 0.0000000000e+00
     1      1      2
 1  1  1     0.0000000000e+00
 1  1  2     0.0000000000e+00
 1  1  3     0.0000000000e+00
 1  2  1     2.5019345849e-02
 1  2  2    -7.5265436006e-02
 1  2  3     4.2052340899e-02
 1  3  1    -2.5019345849e-02
 1  3  2     4.2052340899e-02
 1  3  3    -7.5265436006e-02
 2  1  1     2.5019345849e-02
 2  1  2    -7.5265436006e-02
 2  1  3     4.2052340899e-02
 2  2  1     9.8879191252e-02
 2  2  2    -8.9826328964e-02
 2  2  3     1.0341427821e-01
 2  3  1     1.1466681172e-01
 2  3  2    -3.1889842292e-01
 2  3  3     3.1889842292e-01
 3  1  1    -2.5019345849e-02
 3  1  2     4.2052340899e-02
 3  1  3    -7.5265436006e-02
 3  2  1     1.1466681172e-01
 3  2  2    -3.1889842292e-01
 3  2  3     3.1889842292e-01
 3  3  1     9.8879191252e-02
 3  3  2    -1.0341427821e-01
 3  3  3     8.9826328964e-02

   26
0.0000000000e+00 0.0000000000e+00 0.0000000000e+00
0.0000000000e+00 -2.1897501157e+00 2.1897501157e+00
     1      1      1
 1  1  1     5.8223079881e-01
 1  1  2    -9.2355939639e-01
 1  1  3     9.2355939639e-01
 1  2  1    -3.6435905872e-01
 1  2  2     3.1989143374e-01
 1  2  3     3.4990998452e-01
 1  3  1     3.6435905872e-01
 1  3  2     3.4990998452e-01
 1  3  3     3.1989143374e-01
 2  1  1    -3.6435905872e-01
 2  1  2     3.1989143374e-01
 2  1  3     3.4990998452e-01
 2  2  1     0.0000000000e+00
 2  2  2     0.0000000000e+00
 2  2  3     0.0000000000e+00
 2  3  1     8.3309551547e-02
 2  3  2    -3.7586731851e-02
 2  3  3     3.7586731851e-02
 3  1  1     3.6435905872e-01
 3  1  2     3.4990998452e-01
 3  1  3     3.1989143374e-01
 3  2  1     8.3309551547e-02
 3  2  2    -3.7586731851e-02
 3  2  3     3.7586731851e-02
 3  3  1     0.0000000000e+00
 3  3  2     0.0000000000e+00
 3  3  3     0.0000000000e+00

   27
0.0000000000e+00 0.0000000000e+00 0.0000000000e+00
0.0000000000e+00 -2.1897501157e+00 2.1897501157e+00
     1      1      2
 1  1  1     8.9826328964e-02
 1  1  2    -1.0341427821e-01
 1  1  3     9.8879191252e-02
 1  2  1     3.1889842292e-01
 1  2  2    -3.1889842292e-01
 1  2  3     1.1466681172e-01
 1  3  1    -7.5265436006e-02
 1  3  2     4.2052340899e-02
 1  3  3    -2.5019345849e-02
 2  1  1     3.1889842292e-01
 2  1  2    -3.1889842292e-01
 2  1  3     1.1466681172e-01
 2  2  1     1.0341427821e-01
 2  2  2    -8.9826328964e-02
 2  2  3     9.8879191252e-02
 2  3  1     4.2052340899e-02
 2  3  2    -7.5265436006e-02
 2  3  3     2.5019345849e-02
 3  1  1    -7.5265436006e-02
 3  1  2     4.2052340899e-02
 3  1  3    -2.5019345849e-02
 3  2  1     4.2052340899e-02
 3  2  2    -7.5265436006e-02
 3  2  3     2.5019345849e-02
 3  3  1     0.0000000000e+00
 3  3  2     0.0000000000e+00
 3  3  3     0.0000000000e+00

   28
0.0000000000e+00 0.0000000000e+00 0.0000000000e+00
2.1897501157e+00 0.0000000000e+00 2.1897501157e+00
     1      1      1
 1  1  1     0.0000000000e+00
 1  1  2     0.0000000000e+00
 1  1  3     0.0000000000e+00
 1  2  1    -3.1989143374e-01
 1  2  2     3.6435905872e-01
 1  2  3     3.4990998452e-01
 1  3  1    -3.7586731851e-02
 1  3  2     8.3309551547e-02
 1  3  3    -3.7586731851e-02
 2  1  1    -3.1989143374e-01
 2  1  2     3.6435905872e-01
 2  1  3     3.4990998452e-01
 2  2  1     9.2355939639e-01
 2  2  2    -5.8223079881e-01
 2  2  3     9.2355939639e-01
 2  3  1     3.4990998452e-01
 2  3  2     3.6435905872e-01
 2  3  3    -3.1989143374e-01
 3  1  1    -3.7586731851e-02
 3  1  2     8.3309551547e-02
 3  1  3    -3.7586731851e-02
 3  2  1     3.4990998452e-01
 3  2  2     3.6435905872e-01
 3  2  3    -3.1989143374e-01
 3  3  1     0.0000000000e+00
 3  3  2     0.0000000000e+00
 3  3  3     0.0000000000e+00

   29
0.0000000000e+00 0.0000000000e+00 0.0000000000e+00
0.0000000000e+00 -4.3795002315e+00 0.0000000000e+00
     1      1      2
 1  1  1     8.9826328964e-02
 1  1  2    -9.8879191252e-02
 1  1  3     1.0341427821e-01
 1  2  1     7.5265436006e-02
 1  2  2    -2.5019345849e-02
 1  2  3     4.2052340899e-02
 1  3  1    -3.1889842292e-01
 1  3  2     1.1466681172e-01
 1  3  3    -3.1889842292e-01
 2  1  1     7.5265436006e-02
 2  1  2    -2.5019345849e-02
 2  1  3     4.2052340899e-02
 2  2  1     0.0000000000e+00
 2  2  2     0.0000000000e+00
 2  2  3     0.0000000000e+00
 2  3  1     4.2052340899e-02
 2  3  2    -2.5019345849e-02
 2  3  3     7.5265436006e-02
 3  1  1    -3.1889842292e-01
 3  1  2     1.1466681172e-01
 3  1  3    -3.1889842292e-01
 3  2  1     4.2052340899e-02
 3  2  2    -2.5019345849e-02
 3  2  3     7.5265436006e-02
 3  3  1     1.0341427821e-01
 3  3  2    -9.8879191252e-02
 3  3  3     8.9826328964e-02

   30
0.0000000000e+00 0.0000000000e+00 0.0000000000e+00
0.0000000000e+00 0.0000000000e+00 0.0000000000e+00
     1      2      1
 1  1  1     0.0000000000e+00
 1  1  2     3.8252260788e-01
 1  1  3     3.8252260788e-01
 1  2  1     0.0000000000e+00
 1  2  2     3.8252260788e-01
 1  2  3    -9.9238725516e+00
 1  3  1     0.0000000000e+00
 1  3  2    -9.9238725516e+00
 1  3  3     3.8252260788e-01
 2  1  1     3.8252260788e-01
 2  1  2     0.0000000000e+00
 2  1  3    -9.9238725516e+00
 2  2  1     3.8252260788e-01
 2  2  2     0.0000000000e+00
 2  2  3     3.8252260788e-01
 2  3  1    -9.9238725516e+00
 2  3  2     0.0000000000e+00
 2  3  3     3.8252260788e-01
 3  1  1     3.8252260788e-01
 3  1  2    -9.9238725516e+00
 3  1  3     0.0000000000e+00
 3  2  1    -9.9238725516e+00
 3  2  2     3.8252260788e-01
 3  2  3     0.0000000000e+00
 3  3  1     3.8252260788e-01
 3  3  2     3.8252260788e-01
 3  3  3     0.0000000000e+00

   31
0.0000000000e+00 0.0000000000e+00 0.0000000000e+00
0.0000000000e+00 0.0000000000e+00 0.0000000000e+00
     1      2      2
 1  1  1    -9.0294893969e-01
 1  1  2     1.4252359493e-02
 1  1  3     1.4252359493e-02
 1  2  1     1.4252359493e-02
 1  2  2    -6.4770554533e-01
 1  2  3     1.2265083453e+01
 1  3  1     1.4252359493e-02
 1  3  2     1.2265083453e+01
 1  3  3    -6.4770554533e-01
 2  1  1    -6.4770554533e-01
 2  1  2     1.4252359493e-02
 2  1  3     1.2265083453e+01
 2  2  1     1.4252359493e-02
 2  2  2    -9.0294893969e-01
 2  2  3     1.4252359493e-02
 2  3  1     1.2265083453e+01
 2  3  2     1.4252359493e-02
 2  3  3    -6.4770554533e-01
 3  1  1    -6.4770554533e-01
 3  1  2     1.2265083453e+01
 3  1  3     1.4252359493e-02
 3  2  1     1.2265083453e+01
 3  2  2    -6.4770554533e-01
 3  2  3     1.4252359493e-02
 3  3  1     1.4252359493e-02
 3  3  2     1.4252359493e-02
 3  3  3    -9.0294893969e-01

   32
0.0000000000e+00 0.0000000000e+00 0.0000000000e+00
-2.1897501157e+00 0.0000000000e+00 2.1897501157e+00
     1      2      1
 1  1  1    -1.5682519153e-02
 1  1  2    -9.1462983292e-02
 1  1  3    -1.0941902898e-01
 1  2  1     8.0667946161e-02
 1  2  2    -1.6092510526e-01
 1  2  3    -3.1613022833e-01
 1  3  1     5.2800630441e-02
 1  3  2    -6.6218509429e-02
 1  3  3    -1.3315046765e-01
 2  1  1    -4.0158914176e-02
 2  1  2    -3.3247485246e-01
 2  1  3    -1.7075805495e-01
 2  2  1     2.5483224399e-02
 2  2  2    -1.3713635908e-01
 2  2  3    -1.4397247315e-01
 2  3  1     9.6763677421e-03
 2  3  2    -1.5418451738e-01
 2  3  3    -4.2627107534e-02
 3  1  1     7.5322407693e-02
 3  1  2     8.3807899839e-03
 3  1  3    -2.4776260365e-02
 3  2  1     2.2424433607e-02