 1166

    1
0.0000000000e+00 0.0000000000e+00 0.0000000000e+00
0.0000000000e+00 0.0000000000e+00 0.0000000000e+00
     1      1      1
 1  1  1     0.0000000000e+00
 1  1  2     0.0000000000e+00
 1  1  3     0.0000000000e+00
 1  2  1     0.0000000000e+00
 1  2  2     0.0000000000e+00
 1  2  3    -3.1120308459e+01
 1  3  1     0.0000000000e+00
 1  3  2    -3.1120308459e+01
 1  3  3     0.0000000000e+00
 2  1  1     0.0000000000e+00
 2  1  2     0.0000000000e+00
 2  1  3    -3.1120308459e+01
 2  2  1     0.0000000000e+00
 2  2  2     0.0000000000e+00
 2  2  3     0.0000000000e+00
 2  3  1    -3.1120308459e+01
 2  3  2     0.0000000000e+00
 2  3  3     0.0000000000e+00
 3  1  1     0.0000000000e+00
 3  1  2    -3.1120308459e+01
 3  1  3     0.0000000000e+00
 3  2  1    -3.1120308459e+01
 3  2  2     0.0000000000e+00
 3  2  3     0.0000000000e+00
 3  3  1     0.0000000000e+00
 3  3  2     0.0000000000e+00
 3  3  3     0.0000000000e+00

    2
0.0000000000e+00 0.0000000000e+00 0.0000000000e+00
0.0000000000e+00 0.0000000000e+00 0.0000000000e+00
     1      1      2
 1  1  1     4.3583285609e+00
 1  1  2     5.4143124273e+00
 1  1  3     5.4143124273e+00
 1  2  1     6.1960281019e+00
 1  2  2     6.1960281019e+00
 1  2  3     8.2244158901e+00
 1  3  1     6.1960281019e+00
 1  3  2     8.2244158901e+00
 1  3  3     6.1960281019e+00
 2  1  1     6.1960281019e+00
 2  1  2     6.1960281019e+00
 2  1  3     8.2244158901e+00
 2  2  1     5.4143124273e+00
 2  2  2     4.3583285609e+00
 2  2  3     5.4143124273e+00
 2  3  1     8.2244158901e+00
 2  3  2     6.1960281019e+00
 2  3  3     6.1960281019e+00
 3  1  1     6.1960281019e+00
 3  1  2     8.2244158901e+00
 3  1  3     6.1960281019e+00
 3  2  1     8.2244158901e+00
 3  2  2     6.1960281019e+00
 3  2  3     6.1960281019e+00
 3  3  1     5.4143124273e+00
 3  3  2     5.4143124273e+00
 3  3  3     4.3583285609e+00

    3
0.0000000000e+00 0.0000000000e+00 0.0000000000e+00
0.0000000000e+00 2.7319946255e+00 2.7319946255e+00
     1      1      1
 1  1  1    -2.1499571786e-03
 1  1  2     5.6478432323e-02
 1  1  3     5.6478432323e-02
 1  2  1    -3.5367347005e-02
 1  2  2    -1.6079435960e-01
 1  2  3    -2.3430132214e-01
 1  3  1    -3.5367347005e-02
 1  3  2    -2.3430132214e-01
 1  3  3    -1.6079435960e-01
 2  1  1    -3.5367347005e-02
 2  1  2    -1.6079435960e-01
 2  1  3    -2.3430132214e-01
 2  2  1     3.6495790450e-01
 2  2  2     8.2892369156e-02
 2  2  3     2.3349335650e-02
 2  3  1     2.1922838915e-01
 2  3  2    -6.0201110291e-02
 2  3  3    -6.0201110291e-02
 3  1  1    -3.5367347005e-02
 3  1  2    -2.3430132214e-01
 3  1  3    -1.6079435960e-01
 3  2  1     2.1922838915e-01
 3  2  2    -6.0201110291e-02
 3  2  3    -6.0201110291e-02
 3  3  1     3.6495790450e-01
 3  3  2     2.3349335650e-02
 3  3  3     8.2892369156e-02

    4
0.0000000000e+00 0.0000000000e+00 0.0000000000e+00
0.0000000000e+00 2.7319946255e+00 2.7319946255e+00
     1      1      2
 1  1  1     4.3583285609e+00
 1  1  2    -5.4143124273e+00
 1  1  3    -5.4143124273e+00
 1  2  1    -6.1960281019e+00
 1  2  2     6.1960281019e+00
 1  2  3     8.2244158901e+00
 1  3  1    -6.1960281019e+00
 1  3  2     8.2244158901e+00
 1  3  3     6.1960281019e+00
 2  1  1    -6.1960281019e+00
 2  1  2     6.1960281019e+00
 2  1  3     8.2244158901e+00
 2  2  1     5.4143124273e+00
 2  2  2    -4.3583285609e+00
 2  2  3    -5.4143124273e+00
 2  3  1     8.2244158901e+00
 2  3  2    -6.1960281019e+00
 2  3  3    -6.1960281019e+00
 3  1  1    -6.1960281019e+00
 3  1  2     8.2244158901e+00
 3  1  3     6.1960281019e+00
 3  2  1     8.2244158901e+00
 3  2  2    -6.1960281019e+00
 3  2  3    -6.1960281019e+00
 3  3  1     5.4143124273e+00
 3  3  2    -5.4143124273e+00
 3  3  3    -4.3583285609e+00

    5
0.0000000000e+00 0.0000000000e+00 0.0000000000e+00
0.0000000000e+00 -2.7319946255e+00 -2.7319946255e+00
     1      1      1
 1  1  1    -2.1499571786e-03
 1  1  2    -5.6478432323e-02
 1  1  3    -5.6478432323e-02
 1  2  1     3.5367347005e-02
 1  2  2    -1.6079435960e-01
 1  2  3    -2.3430132214e-01
 1  3  1     3.5367347005e-02
 1  3  2    -2.3430132214e-01
 1  3  3    -1.6079435960e-01
 2  1  1     3.5367347005e-02
 2  1  2    -1.6079435960e-01
 2  1  3    -2.3430132214e-01
 2  2  1     3.6495790450e-01
 2  2  2    -8.2892369156e-02
 2  2  3    -2.3349335650e-02
 2  3  1     2.1922838915e-01
 2  3  2     6.0201110291e-02
 2  3  3     6.0201110291e-02
 3  1  1     3.5367347005e-02
 3  1  2    -2.3430132214e-01
 3  1  3    -1.6079435960e-01
 3  2  1     2.1922838915e-01
 3  2  2     6.0201110291e-02
 3  2  3     6.0201110291e-02
 3  3  1     3.6495790450e-01
 3  3  2    -2.3349335650e-02
 3  3  3    -8.2892369156e-02

    6
0.0000000000e+00 0.0000000000e+00 0.0000000000e+00
2.7319946255e+00 0.0000000000e+00 2.7319946255e+00
     1      1      1
 1  1  1     8.2892369156e-02
 1  1  2     3.6495790450e-01
 1  1  3     2.3349335650e-02
 1  2  1    -1.6079435960e-01
 1  2  2    -3.5367347005e-02
 1  2  3    -2.3430132214e-01
 1  3  1    -6.0201110291e-02
 1  3  2     2.1922838915e-01
 1  3  3    -6.0201110291e-02
 2  1  1    -1.6079435960e-01
 2  1  2    -3.5367347005e-02
 2  1  3    -2.3430132214e-01
 2  2  1     5.6478432323e-02
 2  2  2    -2.1499571786e-03
 2  2  3     5.6478432323e-02
 2  3  1    -2.3430132214e-01
 2  3  2    -3.5367347005e-02
 2  3  3    -1.6079435960e-01
 3  1  1    -6.0201110291e-02
 3  1  2     2.1922838915e-01
 3  1  3    -6.0201110291e-02
 3  2  1    -2.3430132214e-01
 3  2  2    -3.5367347005e-02
 3  2  3    -1.6079435960e-01
 3  3  1     2.3349335650e-02
 3  3  2     3.6495790450e-01
 3  3  3     8.2892369156e-02

    7
0.0000000000e+00 0.0000000000e+00 0.0000000000e+00
2.7319946255e+00 0.0000000000e+00 2.7319946255e+00
     1      1      2
 1  1  1    -4.3583285609e+00
 1  1  2     5.4143124273e+00
 1  1  3    -5.4143124273e+00
 1  2  1     6.1960281019e+00
 1  2  2    -6.1960281019e+00
 1  2  3     8.2244158901e+00
 1  3  1    -6.1960281019e+00
 1  3  2     8.2244158901e+00
 1  3  3    -6.1960281019e+00
 2  1  1     6.1960281019e+00
 2  1  2    -6.1960281019e+00
 2  1  3     8.2244158901e+00
 2  2  1    -5.4143124273e+00
 2  2  2     4.3583285609e+00
 2  2  3    -5.4143124273e+00
 2  3  1     8.2244158901e+00
 2  3  2    -6.1960281019e+00
 2  3  3     6.1960281019e+00
 3  1  1    -6.1960281019e+00
 3  1  2     8.2244158901e+00
 3  1  3    -6.1960281019e+00
 3  2  1     8.2244158901e+00
 3  2  2    -6.1960281019e+00
 3  2  3     6.1960281019e+00
 3  3  1    -5.4143124273e+00
 3  3  2     5.4143124273e+00
 3  3  3    -4.3583285609e+00

    8
0.0000000000e+00 0.0000000000e+00 0.0000000000e+00
2.7319946255e+00 2.7319946255e+00 5.4639892509e+00
     1      1      2
 1  1  1     5.6769960018e-02
 1  1  2    -5.4918567106e-02
 1  1  3    -2.0418288402e-02
 1  2  1    -3.4783377789e-03
 1  2  2    -3.4783377789e-03
 1  2  3    -1.6505222779e-02
 1  3  1     2.7305079361e-02
 1  3  2    -8.3012937026e-02
 1  3  3    -1.1961631984e-01
 2  1  1    -3.4783377789e-03
 2  1  2    -3.4783377789e-03
 2  1  3    -1.6505222779e-02
 2  2  1    -5.4918567106e-02
 2  2  2     5.6769960018e-02
 2  2  3    -2.0418288402e-02
 2  3  1    -8.3012937026e-02
 2  3  2     2.7305079361e-02
 2  3  3    -1.1961631984e-01
 3  1  1     2.7305079361e-02
 3  1  2    -8.3012937026e-02
 3  1  3    -1.1961631984e-01
 3  2  1    -8.3012937026e-02
 3  2  2     2.7305079361e-02
 3  2  3    -1.1961631984e-01
 3  3  1    -6.3198198322e-02
 3  3  2    -6.3198198322e-02
 3  3  3    -2.4435765399e-01

    9
0.0000000000e+00 0.0000000000e+00 0.0000000000e+00
2.7319946255e+00 -2.7319946255e+00 0.0000000000e+00
     1      1      1
 1  1  1     8.2892369156e-02
 1  1  2    -2.3349335650e-02
 1  1  3    -3.6495790450e-01
 1  2  1     6.0201110291e-02
 1  2  2    -6.0201110291e-02
 1  2  3     2.1922838915e-01
 1  3  1     1.6079435960e-01
 1  3  2    -2.3430132214e-01
 1  3  3    -3.5367347005e-02
 2  1  1     6.0201110291e-02
 2  1  2    -6.0201110291e-02
 2  1  3     2.1922838915e-01
 2  2  1     2.3349335650e-02
 2  2  2    -8.2892369156e-02
 2  2  3    -3.6495790450e-01
 2  3  1    -2.3430132214e-01
 2  3  2     1.6079435960e-01
 2  3  3     3.5367347005e-02
 3  1  1     1.6079435960e-01
 3  1  2    -2.3430132214e-01
 3  1  3    -3.5367347005e-02
 3  2  1    -2.3430132214e-01
 3  2  2     1.6079435960e-01
 3  2  3     3.5367347005e-02
 3  3  1     5.6478432323e-02
 3  3  2    -5.6478432323e-02
 3  3  3     2.1499571786e-03

   10
0.0000000000e+00 0.0000000000e+00 0.0000000000e+00
2.7319946255e+00 -2.7319946255e+00 0.0000000000e+00
     1      1      2
 1  1  1     5.6769960018e-02
 1  1  2     2.0418288402e-02
 1  1  3     5.4918567106e-02
 1  2  1    -2.7305079361e-02
 1  2  2    -1.1961631984e-01
 1  2  3    -8.3012937026e-02
 1  3  1     3.4783377789e-03
 1  3  2    -1.6505222779e-02
 1  3  3    -3.4783377789e-03
 2  1  1    -2.7305079361e-02
 2  1  2    -1.1961631984e-01
 2  1  3    -8.3012937026e-02
 2  2  1    -6.3198198322e-02
 2  2  2     2.4435765399e-01
 2  2  3     6.3198198322e-02
 2  3  1    -8.3012937026e-02
 2  3  2     1.1961631984e-01
 2  3  3    -2.7305079361e-02
 3  1  1     3.4783377789e-03
 3  1  2    -1.6505222779e-02
 3  1  3    -3.4783377789e-03
 3  2  1    -8.3012937026e-02
 3  2  2     1.1961631984e-01
 3  2  3    -2.7305079361e-02
 3  3  1    -5.4918567106e-02
 3  3  2     2.0418288402e-02
 3  3  3    -5.6769960018e-02

   11
0.0000000000e+00 0.0000000000e+00 0.0000000000e+00
-2.7319946255e+00 0.0000000000e+00 -2.7319946255e+00
     1      1      1
 1  1  1    -8.2892369156e-02
 1  1  2     3.6495790450e-01
 1  1  3    -2.3349335650e-02
 1  2  1    -1.6079435960e-01
 1  2  2     3.5367347005e-02
 1  2  3    -2.3430132214e-01
 1  3  1     6.0201110291e-02
 1  3  2     2.1922838915e-01
 1  3  3     6.0201110291e-02
 2  1  1    -1.6079435960e-01
 2  1  2     3.5367347005e-02
 2  1  3    -2.3430132214e-01
 2  2  1    -5.6478432323e-02
 2  2  2    -2.1499571786e-03
 2  2  3    -5.6478432323e-02
 2  3  1    -2.3430132214e-01
 2  3  2     3.5367347005e-02
 2  3  3    -1.6079435960e-01
 3  1  1     6.0201110291e-02
 3  1  2     2.1922838915e-01
 3  1  3     6.0201110291e-02
 3  2  1    -2.3430132214e-01
 3  2  2     3.5367347005e-02
 3  2  3    -1.6079435960e-01
 3  3  1    -2.3349335650e-02
 3  3  2     3.6495790450e-01
 3  3  3    -8.2892369156e-02

   12
0.0000000000e+00 0.0000000000e+00 0.0000000000e+00
-2.7319946255e+00 2.7319946255e+00 0.0000000000e+00
     1      1      1
 1  1  1    -8.2892369156e-02
 1  1  2     2.3349335650e-02
 1  1  3    -3.6495790450e-01
 1  2  1    -6.0201110291e-02
 1  2  2     6.0201110291e-02
 1  2  3     2.1922838915e-01
 1  3  1     1.6079435960e-01
 1  3  2    -2.3430132214e-01
 1  3  3     3.5367347005e-02
 2  1  1    -6.0201110291e-02
 2  1  2     6.0201110291e-02
 2  1  3     2.1922838915e-01
 2  2  1    -2.3349335650e-02
 2  2  2     8.2892369156e-02
 2  2  3    -3.6495790450e-01
 2  3  1    -2.3430132214e-01
 2  3  2     1.6079435960e-01
 2  3  3    -3.5367347005e-02
 3  1  1     1.6079435960e-01
 3  1  2    -2.3430132214e-01
 3  1  3     3.5367347005e-02
 3  2  1    -2.3430132214e-01
 3  2  2     1.6079435960e-01
 3  2  3    -3.5367347005e-02
 3  3  1    -5.6478432323e-02
 3  3  2     5.6478432323e-02
 3  3  3     2.1499571786e-03

   13
0.0000000000e+00 0.0000000000e+00 0.0000000000e+00
-2.7319946255e+00 2.7319946255e+00 0.0000000000e+00
     1      1      2
 1  1  1     2.4435765399e-01
 1  1  2    -6.3198198322e-02
 1  1  3     6.3198198322e-02
 1  2  1    -1.1961631984e-01
 1  2  2    -2.7305079361e-02
 1  2  3    -8.3012937026e-02
 1  3  1     1.1961631984e-01
 1  3  2    -8.3012937026e-02
 1  3  3    -2.7305079361e-02
 2  1  1    -1.1961631984e-01
 2  1  2    -2.7305079361e-02
 2  1  3    -8.3012937026e-02
 2  2  1     2.0418288402e-02
 2  2  2     5.6769960018e-02
 2  2  3     5.4918567106e-02
 2  3  1    -1.6505222779e-02
 2  3  2     3.4783377789e-03
 2  3  3    -3.4783377789e-03
 3  1  1     1.1961631984e-01
 3  1  2    -8.3012937026e-02
 3  1  3    -2.7305079361e-02
 3  2  1    -1.6505222779e-02
 3  2  2     3.4783377789e-03
 3  2  3    -3.4783377789e-03
 3  3  1     2.0418288402e-02
 3  3  2    -5.4918567106e-02
 3  3  3    -5.6769960018e-02

   14
0.0000000000e+00 0.0000000000e+00 0.0000000000e+00
2.7319946255e+00 2.7319946255e+00 0.0000000000e+00
     1      1      1
 1  1  1     8.2892369156e-02
 1  1  2     2.3349335650e-02
 1  1  3     3.6495790450e-01
 1  2  1    -6.0201110291e-02
 1  2  2    -6.0201110291e-02
 1  2  3     2.1922838915e-01
 1  3  1    -1.6079435960e-01
 1  3  2    -2.3430132214e-01
 1  3  3    -3.5367347005e-02
 2  1  1    -6.0201110291e-02
 2  1  2    -6.0201110291e-02
 2  1  3     2.1922838915e-01
 2  2  1     2.3349335650e-02
 2  2  2     8.2892369156e-02
 2  2  3     3.6495790450e-01
 2  3  1    -2.3430132214e-01
 2  3  2    -1.6079435960e-01
 2  3  3    -3.5367347005e-02
 3  1  1    -1.6079435960e-01
 3  1  2    -2.3430132214e-01
 3  1  3    -3.5367347005e-02
 3  2  1    -2.3430132214e-01
 3  2  2    -1.6079435960e-01
 3  2  3    -3.5367347005e-02
 3  3  1     5.6478432323e-02
 3  3  2     5.6478432323e-02
 3  3  3    -2.1499571786e-03

   15
0.0000000000e+00 0.0000000000e+00 0.0000000000e+00
2.7319946255e+00 2.7319946255e+00 0.0000000000e+00
     1      1      2
 1  1  1    -4.3583285609e+00
 1  1  2    -5.4143124273e+00
 1  1  3     5.4143124273e+00
 1  2  1    -6.1960281019e+00
 1  2  2    -6.1960281019e+00
 1  2  3     8.2244158901e+00
 1  3  1     6.1960281019e+00
 1  3  2     8.2244158901e+00
 1  3  3    -6.1960281019e+00
 2  1  1    -6.1960281019e+00
 2  1  2    -6.1960281019e+00
 2  1  3     8.2244158901e+00
 2  2  1    -5.4143124273e+00
 2  2  2    -4.3583285609e+00
 2  2  3     5.4143124273e+00
 2  3  1     8.2244158901e+00
 2  3  2     6.1960281019e+00
 2  3  3    -6.1960281019e+00
 3  1  1     6.1960281019e+00
 3  1  2     8.2244158901e+00
 3  1  3    -6.1960281019e+00
 3  2  1     8.2244158901e+00
 3  2  2     6.1960281019e+00
 3  2  3    -6.1960281019e+00
 3  3  1    -5.4143124273e+00
 3  3  2    -5.4143124273e+00
 3  3  3     4.3583285609e+00

   16
0.0000000000e+00 0.0000000000e+00 0.0000000000e+00
2.7319946255e+00 5.4639892509e+00 2.7319946255e+00
     1      1      2
 1  1  1     5.6769960018e-02
 1  1  2    -2.0418288402e-02
 1  1  3    -5.4918567106e-02
 1  2  1     2.7305079361e-02
 1  2  2    -1.1961631984e-01
 1  2  3    -8.3012937026e-02
 1  3  1    -3.4783377789e-03
 1  3  2    -1.6505222779e-02
 1  3  3    -3.4783377789e-03
 2  1  1     2.7305079361e-02
 2  1  2    -1.1961631984e-01
 2  1  3    -8.3012937026e-02
 2  2  1    -6.3198198322e-02
 2  2  2    -2.4435765399e-01
 2  2  3    -6.3198198322e-02
 2  3  1    -8.3012937026e-02
 2  3  2    -1.1961631984e-01
 2  3  3     2.7305079361e-02
 3  1  1    -3.4783377789e-03
 3  1  2    -1.6505222779e-02
 3  1  3    -3.4783377789e-03
 3  2  1    -8.3012937026e-02
 3  2  2    -1.1961631984e-01
 3  2  3     2.7305079361e-02
 3  3  1    -5.4918567106e-02
 3  3  2    -2.0418288402e-02
 3  3  3     5.6769960018e-02

   17
0.0000000000e+00 0.0000000000e+00 0.0000000000e+00
2.7319946255e+00 0.0000000000e+00 -2.7319946255e+00
     1      1      1
 1  1  1     8.2892369156e-02
 1  1  2    -3.6495790450e-01
 1  1  3    -2.3349335650e-02
 1  2  1     1.6079435960e-01
 1  2  2    -3.5367347005e-02
 1  2  3    -2.3430132214e-01
 1  3  1     6.0201110291e-02
 1  3  2     2.1922838915e-01
 1  3  3    -6.0201110291e-02
 2  1  1     1.6079435960e-01
 2  1  2    -3.5367347005e-02
 2  1  3    -2.3430132214e-01
 2  2  1     5.6478432323e-02
 2  2  2     2.1499571786e-03
 2  2  3    -5.6478432323e-02
 2  3  1    -2.3430132214e-01
 2  3  2     3.5367347005e-02
 2  3  3     1.6079435960e-01
 3  1  1     6.0201110291e-02
 3  1  2     2.1922838915e-01
 3  1  3    -6.0201110291e-02
 3  2  1    -2.3430132214e-01
 3  2  2     3.5367347005e-02
 3  2  3     1.6079435960e-01
 3  3  1     2.3349335650e-02
 3  3  2    -3.6495790450e-01
 3  3  3    -8.2892369156e-02

   18
0.0000000000e+00 0.0000000000e+00 0.0000000000e+00
2.7319946255e+00 0.0000000000e+00 -2.7319946255e+00
     1      1      2
 1  1  1     5.6769960018e-02
 1  1  2     5.4918567106e-02
 1  1  3     2.0418288402e-02
 1  2  1     3.4783377789e-03
 1  2  2    -3.4783377789e-03
 1  2  3    -1.6505222779e-02
 1  3  1    -2.7305079361e-02
 1  3  2    -8.3012937026e-02
 1  3  3    -1.1961631984e-01
 2  1  1     3.4783377789e-03
 2  1  2    -3.4783377789e-03
 2  1  3    -1.6505222779e-02
 2  2  1    -5.4918567106e-02
 2  2  2    -5.6769960018e-02
 2  2  3     2.0418288402e-02
 2  3  1    -8.3012937026e-02
 2  3  2    -2.7305079361e-02
 2  3  3     1.1961631984e-01
 3  1  1    -2.7305079361e-02
 3  1  2    -8.3012937026e-02
 3  1  3    -1.1961631984e-01
 3  2  1    -8.3012937026e-02
 3  2  2    -2.7305079361e-02
 3  2  3     1.1961631984e-01
 3  3  1    -6.3198198322e-02
 3  3  2     6.3198198322e-02
 3  3  3     2.4435765399e-01

   19
0.0000000000e+00 0.0000000000e+00 0.0000000000e+00
5.4639892509e+00 2.7319946255e+00 2.7319946255e+00
     1      1      2
 1  1  1    -2.4435765399e-01
 1  1  2    -6.3198198322e-02
 1  1  3    -6.3198198322e-02
 1  2  1    -1.1961631984e-01
 1  2  2     2.7305079361e-02
 1  2  3    -8.3012937026e-02
 1  3  1    -1.1961631984e-01
 1  3  2    -8.3012937026e-02
 1  3  3     2.7305079361e-02
 2  1  1    -1.1961631984e-01
 2  1  2     2.7305079361e-02
 2  1  3    -8.3012937026e-02
 2  2  1    -2.0418288402e-02
 2  2  2     5.6769960018e-02
 2  2  3    -5.4918567106e-02
 2  3  1    -1.6505222779e-02
 2  3  2    -3.4783377789e-03
 2  3  3    -3.4783377789e-03
 3  1  1    -1.1961631984e-01
 3  1  2    -8.3012937026e-02
 3  1  3     2.7305079361e-02
 3  2  1    -1.6505222779e-02
 3  2  2    -3.4783377789e-03
 3  2  3    -3.4783377789e-03
 3  3  1    -2.0418288402e-02
 3  3  2    -5.4918567106e-02
 3  3  3     5.6769960018e-02

   20
0.0000000000e+00 0.0000000000e+00 0.0000000000e+00
5.4639892509e+00 0.0000000000e+00 0.0000000000e+00
     1      1      1
 1  1  1     7.1373826544e-02
 1  1  2     0.0000000000e+00
 1  1  3     0.0000000000e+00
 1  2  1     0.0000000000e+00
 1  2  2    -1.7425502800e-02
 1  2  3    -9.2673173476e-03
 1  3  1     0.0000000000e+00
 1  3  2    -9.2673173476e-03
 1  3  3    -1.7425502800e-02
 2  1  1     0.0000000000e+00
 2  1  2    -1.7425502800e-02
 2  1  3    -9.2673173476e-03
 2  2  1     4.6856752912e-02
 2  2  2     0.0000000000e+00
 2  2  3     0.0000000000e+00
 2  3  1    -6.2379275194e-03
 2  3  2     0.0000000000e+00
 2  3  3     0.0000000000e+00
 3  1  1     0.0000000000e+00
 3  1  2    -9.2673173476e-03
 3  1  3    -1.7425502800e-02
 3  2  1    -6.2379275194e-03
 3  2  2     0.0000000000e+00
 3  2  3     0.0000000000e+00
 3  3  1     4.6856752912e-02
 3  3  2     0.0000000000e+00
 3  3  3     0.0000000000e+00

   21
0.0000000000e+00 0.0000000000e+00 0.0000000000e+00
5.4639892509e+00 0.0000000000e+00 0.0000000000e+00
     1      1      2
 1  1  1    -2.4435765399e-01
 1  1  2     6.3198198322e-02
 1  1  3     6.3198198322e-02
 1  2  1     1.1961631984e-01
 1  2  2     2.7305079361e-02
 1  2  3    -8.3012937026e-02
 1  3  1     1.1961631984e-01
 1  3  2    -8.3012937026e-02
 1  3  3     2.7305079361e-02
 2  1  1     1.1961631984e-01
 2  1  2     2.7305079361e-02
 2  1  3    -8.3012937026e-02
 2  2  1    -2.0418288402e-02
 2  2  2    -5.6769960018e-02
 2  2  3     5.4918567106e-02
 2  3  1    -1.6505222779e-02
 2  3  2     3.4783377789e-03
 2  3  3     3.4783377789e-03
 3  1  1     1.1961631984e-01
 3  1  2    -8.3012937026e-02
 3  1  3     2.7305079361e-02
 3  2  1    -1.6505222779e-02
 3  2  2     3.4783377789e-03
 3  2  3     3.4783377789e-03
 3  3  1    -2.0418288402e-02
 3  3  2     5.4918567106e-02
 3  3  3    -5.6769960018e-02

   22
0.0000000000e+00 0.0000000000e+00 0.0000000000e+00
0.0000000000e+00 2.7319946255e+00 -2.7319946255e+00
     1      1      1
 1  1  1     2.1499571786e-03
 1  1  2     5.6478432323e-02
 1  1  3    -5.6478432323e-02
 1  2  1    -3.5367347005e-02
 1  2  2     1.6079435960e-01
 1  2  3    -2.3430132214e-01
 1  3  1     3.5367347005e-02
 1  3  2    -2.3430132214e-01
 1  3  3     1.6079435960e-01
 2  1  1    -3.5367347005e-02
 2  1  2     1.6079435960e-01
 2  1  3    -2.3430132214e-01
 2  2  1    -3.6495790450e-01
 2  2  2     8.2892369156e-02
 2  2  3    -2.3349335650e-02
 2  3  1     2.1922838915e-01
 2  3  2     6.0201110291e-02
 2  3  3    -6.0201110291e-02
 3  1  1     3.5367347005e-02
 3  1  2    -2.3430132214e-01
 3  1  3     1.6079435960e-01
 3  2  1     2.1922838915e-01
 3  2  2     6.0201110291e-02
 3  2  3    -6.0201110291e-02
 3  3  1    -3.6495790450e-01
 3  3  2     2.3349335650e-02
 3  3  3    -8.2892369156e-02

   23
0.0000000000e+00 0.0000000000e+00 0.0000000000e+00
0.0000000000e+00 2.7319946255e+00 -2.7319946255e+00
     1      1      2
 1  1  1    -5.6769960018e-02
 1  1  2    -5.4918567106e-02
 1  1  3     2.0418288402e-02
 1  2  1    -3.4783377789e-03
 1  2  2     3.4783377789e-03
 1  2  3    -1.6505222779e-02
 1  3  1    -2.7305079361e-02
 1  3  2    -8.3012937026e-02
 1  3  3     1.1961631984e-01
 2  1  1    -3.4783377789e-03
 2  1  2     3.4783377789e-03
 2  1  3    -1.6505222779e-02
 2  2  1     5.4918567106e-02
 2  2  2     5.6769960018e-02
 2  2  3     2.0418288402e-02
 2  3  1    -8.3012937026e-02
 2  3  2    -2.7305079361e-02
 2  3  3    -1.1961631984e-01
 3  1  1    -2.7305079361e-02
 3  1  2    -8.3012937026e-02
 3  1  3     1.1961631984e-01
 3  2  1    -8.3012937026e-02
 3  2  2    -2.7305079361e-02
 3  2  3    -1.1961631984e-01
 3  3  1     6.3198198322e-02
 3  3  2    -6.3198198322e-02
 3  3  3     2.4435765399e-01

   24
0.0000000000e+00 0.0000000000e+00 0.0000000000e+00
0.0000000000e+00 5.4639892509e+00 0.0000000000e+00
     1      1      1
 1  1  1     0.0000000000e+00
 1  1  2     4.6856752912e-02
 1  1  3     0.0000000000e+00
 1  2  1    -1.7425502800e-02
 1  2  2     0.0000000000e+00
 1  2  3    -9.2673173476e-03
 1  3  1     0.0000000000e+00
 1  3  2    -6.2379275194e-03
 1  3  3     0.0000000000e+00
 2  1  1    -1.7425502800e-02
 2  1  2     0.0000000000e+00
 2  1  3    -9.2673173476e-03
 2  2  1     0.0000000000e+00
 2  2  2     7.1373826544e-02
 2  2  3     0.0000000000e+00
 2  3  1    -9.2673173476e-03
 2  3  2     0.0000000000e+00
 2  3  3    -1.7425502800e-02
 3  1  1     0.0000000000e+00
 3  1  2    -6.2379275194e-03
 3  1  3     0.0000000000e+00
 3  2  1    -9.2673173476e-03
 3  2  2     0.0000000000e+00
 3  2  3    -1.7425502800e-02
 3  3  1     0.0000000000e+00
 3  3  2     4.6856752912e-02
 3  3  3     0.0000000000e+00

   25
0.0000000000e+00 0.0000000000e+00 0.0000000000e+00
0.0000000000e+00 5.4639892509e+00 0.0000000000e+00
     1      1      2
 1  1  1    -5.6769960018e-02
 1  1  2    -2.0418288402e-02
 1  1  3     5.4918567106e-02
 1  2  1     2.7305079361e-02
 1  2  2     1.1961631984e-01
 1  2  3    -8.3012937026e-02
 1  3  1     3.4783377789e-03
 1  3  2    -1.6505222779e-02
 1  3  3     3.4783377789e-03
 2  1  1     2.7305079361e-02
 2  1  2     1.1961631984e-01
 2  1  3    -8.3012937026e-02
 2  2  1     6.3198198322e-02
 2  2  2    -2.4435765399e-01
 2  2  3     6.3198198322e-02
 2  3  1    -8.3012937026e-02
 2  3  2     1.1961631984e-01
 2  3  3     2.7305079361e-02
 3  1  1     3.4783377789e-03
 3  1  2    -1.6505222779e-02
 3  1  3     3.4783377789e-03
 3  2  1    -8.3012937026e-02
 3  2  2     1.1961631984e-01
 3  2  3     2.7305079361e-02
 3  3  1     5.4918567106e-02
 3  3  2    -2.0418288402e-02
 3  3  3    -5.6769960018e-02

   26
0.0000000000e+00 0.0000000000e+00 0.0000000000e+00
0.0000000000e+00 0.0000000000e+00 -5.4639892509e+00
     1      1      1
 1  1  1     0.0000000000e+00
 1  1  2     0.0000000000e+00
 1  1  3    -4.6856752912e-02
 1  2  1     0.0000000000e+00
 1  2  2     0.0000000000e+00
 1  2  3    -6.2379275194e-03
 1  3  1     1.7425502800e-02
 1  3  2    -9.2673173476e-03
 1  3  3     0.0000000000e+00
 2  1  1     0.0000000000e+00
 2  1  2     0.0000000000e+00
 2  1  3    -6.2379275194e-03
 2  2  1     0.0000000000e+00
 2  2  2     0.0000000000e+00
 2  2  3    -4.6856752912e-02
 2  3  1    -9.2673173476e-03
 2  3  2     1.7425502800e-02
 2  3  3     0.0000000000e+00
 3  1  1     1.7425502800e-02
 3  1  2    -9.2673173476e-03
 3  1  3     0.0000000000e+00
 3  2  1    -9.2673173476e-03
 3  2  2     1.7425502800e-02
 3  2  3     0.0000000000e+00
 3  3  1     0.0000000000e+00
 3  3  2     0.0000000000e+00
 3  3  3    -7.1373826544e-02

   27
0.0000000000e+00 0.0000000000e+00 0.0000000000e+00
-2.7319946255e+00 -2.7319946255e+00 0.0000000000e+00
     1      1      1
 1  1  1    -8.2892369156e-02
 1  1  2    -2.3349335650e-02
 1  1  3     3.6495790450e-01
 1  2  1     6.0201110291e-02
 1  2  2     6.0201110291e-02
 1  2  3     2.1922838915e-01
 1  3  1    -1.6079435960e-01
 1  3  2    -2.3430132214e-01
 1  3  3     3.5367347005e-02
 2  1  1     6.0201110291e-02
 2  1  2     6.0201110291e-02
 2  1  3     2.1922838915e-01
 2  2  1    -2.3349335650e-02
 2  2  2    -8.2892369156e-02
 2  2  3     3.6495790450e-01
 2  3  1    -2.3430132214e-01
 2  3  2    -1.6079435960e-01
 2  3  3     3.5367347005e-02
 3  1  1    -1.6079435960e-01
 3  1  2    -2.3430132214e-01
 3  1  3     3.5367347005e-02
 3  2  1    -2.3430132214e-01
 3  2  2    -1.6079435960e-01
 3  2  3     3.5367347005e-02
 3  3  1    -5.6478432323e-02
 3  3  2    -5.6478432323e-02
 3  3  3    -2.1499571786e-03

   28
0.0000000000e+00 0.0000000000e+00 0.0000000000e+00
-2.7319946255e+00 0.0000000000e+00 2.7319946255e+00
     1      1      1
 1  1  1    -8.2892369156e-02
 1  1  2    -3.6495790450e-01
 1  1  3     2.3349335650e-02
 1  2  1     1.6079435960e-01
 1  2  2     3.5367347005e-02
 1  2  3    -2.3430132214e-01
 1  3  1    -6.0201110291e-02
 1  3  2     2.1922838915e-01
 1  3  3     6.0201110291e-02
 2  1  1     1.6079435960e-01
 2  1  2     3.5367347005e-02
 2  1  3    -2.3430132214e-01
 2  2  1    -5.6478432323e-02
 2  2  2     2.1499571786e-03
 2  2  3     5.6478432323e-02
 2  3  1    -2.3430132214e-01
 2  3  2    -3.5367347005e-02
 2  3  3     1.6079435960e-01
 3  1  1    -6.0201110291e-02
 3  1  2     2.1922838915e-01
 3  1  3     6.0201110291e-02
 3  2  1    -2.3430132214e-01
 3  2  2    -3.5367347005e-02
 3  2  3     1.6079435960e-01
 3  3  1    -2.3349335650e-02
 3  3  2    -3.6495790450e-01
 3  3  3     8.2892369156e-02

   29
0.0000000000e+00 0.0000000000e+00 0.0000000000e+00
-2.7319946255e+00 0.0000000000e+00 2.7319946255e+00
     1      1      2
 1  1  1     2.4435765399e-01
 1  1  2     6.3198198322e-02
 1  1  3    -6.3198198322e-02
 1  2  1     1.1961631984e-01
 1  2  2    -2.7305079361e-02
 1  2  3    -8.3012937026e-02
 1  3  1    -1.1961631984e-01
 1  3  2    -8.3012937026e-02
 1  3  3    -2.7305079361e-02
 2  1  1     1.1961631984e-01
 2  1  2    -2.7305079361e-02
 2  1  3    -8.3012937026e-02
 2  2  1     2.0418288402e-02
 2  2  2    -5.6769960018e-02
 2  2  3    -5.4918567106e-02
 2  3  1    -1.6505222779e-02
 2  3  2    -3.4783377789e-03
 2  3  3     3.4783377789e-03
 3  1  1    -1.1961631984e-01
 3  1  2    -8.3012937026e-02
 3  1  3    -2.7305079361e-02
 3  2  1    -1.6505222779e-02
 3  2  2    -3.4783377789e-03
 3  2  3     3.4783377789e-03
 3  3  1     2.0418288402e-02
 3  3  2     5.4918567106e-02
 3  3  3     5.6769960018e-02

   30
0.0000000000e+00 0.0000000000e+00 0.0000000000e+00
0.0000000000e+00 -2.7319946255e+00 2.7319946255e+00
     1      1      1
 1  1  1     2.1499571786e-03
 1  1  2    -5.6478432323e-02
 1  1  3     5.6478432323e-02
 1  2  1     3.5367347005e-02
 1  2  2     1.6079435960e-01
 1  2  3    -2.3430132214e-01
 1  3  1    -3.5367347005e-02
 1  3  2    -2.3430132214e-01
 1  3  3     1.6079435960e-01
 2  1  1     3.5367347005e-02
 2  1  2     1.6079435960e-01
 2  1  3    -2.3430132214e-01
 2  2  1    -3.6495790450e-01
 2  2  2    -8.2892369156e-02
 2  2  3     2.3349335650e-02
 2  3  1     2.1922838915e-01
 2  3  2    -6.0201110291e-02
 2  3  3     6.0201110291e-02
 3  1  1    -3.5367347005e-02
 3  1  2    -2.3430132214e-01
 3  1  3     1.6079435960e-01
 3  2  1     2.1922838915e-01
 3  2  2    -6.0201110291e-02
 3  2  3     6.0201110291e-02
 3  3  1    -3.6495790450e-01
 3  3  2    -2.3349335650e-02
 3  3  3     8.2892369156e-02

   31
0.0000000000e+00 0.0000000000e+00 0.0000000000e+00
0.0000000000e+00 -2.7319946255e+00 2.7319946255e+00
     1      1      2
 1  1  1    -5.6769960018e-02
 1  1  2     2.0418288402e-02
 1  1  3    -5.4918567106e-02
 1  2  1    -2.7305079361e-02
 1  2  2     1.1961631984e-01
 1  2  3    -8.3012937026e-02
 1  3  1    -3.4783377789e-03
 1  3  2    -1.6505222779e-02
 1  3  3     3.4783377789e-03
 2  1  1    -2.7305079361e-02
 2  1  2     1.1961631984e-01
 2  1  3    -8.3012937026e-02
 2  2  1     6.3198198322e-02
 2  2  2     2.4435765399e-01
 2  2  3    -6.3198198322e-02
 2  3  1    -8.3012937026e-02
 2  3  2    -1.1961631984e-01
 2  3  3    -2.7305079361e-02
 3  1  1    -3.4783377789e-03
 3  1  2    -1.6505222779e-02
 3  1  3     3.4783377789e-03
 3  2  1    -8.3012937026e-02
 3  2  2    -1.1961631984e-01
 3  2  3    -2.7305079361e-02
 3  3  1     5.4918567106e-02
 3  3  2     2.0418288402e-02
 3  3  3     5.6769960018e-02

   32
0.0000000000e+00 0.0000000000e+00 0.0000000000e+00
0.0000000000e+00 0.0000000000e+00 5.4639892509e+00
     1      1      1
 1  1  1     0.0000000000e+00
 1  1  2     0.0000000000e+00
 1  1  3     4.6856752912e-02
 1  2  1     0.0000000000e+00
 1  2  2     0.0000000000e+00
 1  2  3    -6.2379275194e-03
 1  3  1    -1.7425502800e-02
 1  3  2    -9.2673173476e-03
 1  3  3     0.0000000000e+00
 2  1  1     0.0000000000e+00
 2  1  2     0.0000000000e+00
 2  1  3    -6.2379275194e-03
 2  2  1     0.0000000000e+00
 2  2  2     0.0000000000e+00
 2  2  3     4.6856752912e-02
 2  3  1    -9.2673173476e-03
 2  3  2    -1.7425502800e-02
 2  3  3     0.0000000000e+00
 3  1  1    -1.7425502800e-02
 3  1  2    -9.2673173476e-03
 3  1  3     0.0000000000e+00
 3  2  1    -9.2673173476e-03
 3  2  2    -1.7425502800e-02